ITEM: TIMESTEP
2000
ITEM: NUMBER OF ATOMS
81648
ITEM: BOX BOUNDS ff pp pp
-6.1168983129784692e+01 9.7168983130205959e+01
-2.9786656534339343e+01 5.0786656534339400e+01
-3.8341684971291798e+01 6.5238001602061900e+01
ITEM: ATOMS id type x y z 
4 4 -49.882 -27.6274 -37.7482 
3 3 -49.7213 -29.5274 -35.8681 
2270 2 -47.7849 -27.6899 -35.9521 
2269 2 -47.7741 -29.4016 -37.876 
4538 1 -43.9188 -27.6038 -36.0085 
2272 1 -45.7986 -27.617 -37.9035 
4537 1 -43.914 -29.6206 -37.9971 
2271 4 -45.7963 -29.5322 -36.0249 
4540 4 -41.8713 -27.7313 -37.9225 
4539 4 -41.9247 -29.5415 -36.0266 
6806 4 -39.8204 -27.6826 -36.0754 
6808 4 -37.8721 -27.7288 -38.0486 
6807 4 -37.9312 -29.589 -36.1271 
6805 1 -39.9418 -29.669 -37.9889 
9074 1 -35.8639 -27.6515 -36.0964 
9073 4 -35.9844 -29.6283 -38.0725 
11342 1 -32.0097 -27.6711 -36.1405 
9076 4 -33.9764 -27.698 -38.0744 
9075 2 -34.0066 -29.4861 -36.1558 
11341 4 -32.1648 -29.6918 -38.0875 
11344 4 -30.2244 -27.6753 -38.1754 
11343 4 -30.1434 -29.5502 -36.2119 
13610 3 -28.3414 -27.7346 -36.2946 
13612 4 -26.4062 -27.8195 -38.1545 
13611 4 -26.32 -29.6186 -36.2609 
13609 4 -28.2577 -29.7295 -38.1924 
15878 1 -24.3273 -27.7318 -36.3162 
15877 4 -24.2466 -29.7573 -38.2148 
15880 1 -22.3385 -27.7391 -38.1649 
18146 1 -20.3686 -27.912 -36.1625 
15879 3 -22.3535 -29.5665 -36.2172 
18145 3 -20.3601 -29.5005 -38.2513 
20414 4 -16.5361 -27.8708 -36.2799 
20413 4 -16.5612 -29.7759 -38.2911 
18148 3 -18.5867 -27.9101 -38.0807 
111 1 -49.8378 -25.7854 -35.7756 
112 1 -49.6899 -23.8712 -37.9742 
2378 4 -47.7811 -23.8719 -36.0041 
2377 4 -47.8612 -25.6724 -37.8879 
2379 4 -45.7961 -25.6801 -36.1401 
4646 4 -43.7827 -23.833 -36.0987 
4645 3 -43.8105 -25.8322 -37.8677 
2380 3 -45.7755 -23.8905 -38.1289 
4647 3 -41.8265 -25.746 -35.9258 
4648 3 -41.7949 -23.902 -37.8744 
6915 2 -37.8272 -25.7736 -36.0896 
6914 4 -39.8866 -23.8849 -36.1005 
6913 3 -39.9142 -25.8357 -38.0552 
6916 4 -38.0014 -23.8885 -37.9796 
9182 4 -35.9083 -23.8486 -36.032 
9181 2 -35.907 -25.7023 -38.0937 
9183 1 -33.9123 -25.6872 -36.2513 
11450 1 -31.9771 -23.8152 -36.0828 
11449 4 -32.2198 -25.7051 -38.1639 
9184 1 -33.9323 -23.7014 -38.1048 
11451 3 -30.276 -25.7663 -36.1274 
11452 3 -30.2662 -23.7791 -38.152 
13718 2 -28.245 -23.9787 -36.1834 
13717 4 -28.3141 -25.7989 -38.1672 
13719 4 -26.3063 -25.925 -36.2652 
13720 1 -26.2493 -24.07 -38.1125 
15986 4 -24.267 -24.1141 -36.1673 
15985 3 -24.2825 -25.8747 -38.1534 
15987 3 -22.2863 -25.9895 -36.2294 
18254 3 -20.5344 -24.1557 -36.2991 
18253 2 -20.3851 -25.9854 -38.079 
15988 3 -22.4024 -23.9468 -38.1635 
18255 2 -18.5295 -25.9073 -36.2802 
20522 4 -16.4868 -24.0946 -36.3963 
18256 4 -18.4548 -24.0697 -38.2561 
20521 4 -16.6417 -25.9676 -38.3148 
219 1 -49.6302 -21.7858 -36.1833 
2485 1 -47.5897 -22.0379 -37.9639 
2487 3 -45.7384 -21.9302 -36.0742 
4753 3 -43.8096 -22.0458 -37.9384 
4755 3 -41.8553 -21.9498 -36.0577 
7023 3 -37.8699 -22.0048 -36.1294 
7021 3 -39.8353 -21.8971 -37.8505 
9289 4 -35.8991 -22.0118 -37.9587 
9291 1 -33.989 -21.9611 -35.9898 
11557 1 -32.0623 -21.9622 -38.0171 
11559 4 -30.1059 -21.944 -36.1471 
13827 3 -26.195 -22.0354 -36.1698 
13825 4 -28.1965 -22.0198 -38.119 
16093 2 -24.3091 -22.1511 -38.145 
16095 4 -22.2861 -22.1066 -36.1729 
18361 1 -20.4264 -22.2161 -38.1619 
18363 3 -18.5574 -22.0665 -36.2657 
20629 4 -16.5616 -22.2221 -38.2645 
327 4 -49.583 -18.1535 -36.0613 
325 3 -51.3884 -18.0124 -37.7754 
220 3 -49.8035 -19.9665 -37.9333 
2486 4 -47.7159 -19.94 -36.2088 
2593 3 -47.5994 -18.0613 -37.997 
4754 4 -43.8423 -20.0027 -36.0697 
2595 3 -45.7346 -18.0145 -35.9935 
4861 3 -43.8475 -18.162 -37.9814 
2488 3 -45.7336 -20.0136 -37.9057 
4863 4 -41.8716 -18.1441 -36.0465 
4756 4 -41.8654 -19.9628 -37.9258 
7022 4 -39.8624 -20.0699 -36.0813 
7131 3 -37.9078 -18.146 -36.0447 
7024 3 -37.8798 -20.0758 -37.8251 
7129 1 -39.7057 -18.1382 -38.0022 
9290 3 -36.0161 -20.0631 -35.9858 
9397 1 -36.0663 -18.1679 -37.9602 
11558 3 -32.1181 -20.2034 -36.0641 
9399 2 -33.8858 -18.3719 -35.9775 
11665 4 -32.0191 -18.2304 -38.0332 
9292 4 -34.0093 -20.0995 -38.0693 
11667 1 -30.0997 -18.2832 -36.0865 
11560 3 -30.1871 -19.9687 -37.9706 
13826 3 -28.1433 -20.1677 -36.2175 
13935 4 -26.2109 -18.2489 -36.2931 
13933 4 -28.1395 -18.2166 -38.1293 
13828 1 -26.2442 -20.2013 -38.0323 
16094 1 -24.3447 -20.2308 -36.279 
16201 3 -24.2151 -18.2483 -38.067 
16203 1 -22.3313 -18.1399 -36.2978 
16096 4 -22.3879 -20.1796 -38.1943 
18362 4 -20.393 -20.1058 -36.2238 
18469 4 -20.4575 -18.2156 -38.2247 
18471 4 -18.5432 -18.2074 -36.3006 
18364 1 -18.5646 -20.1599 -38.1383 
20737 3 -16.6439 -18.4809 -38.2387 
20630 3 -16.5747 -20.265 -36.2454 
326 1 -51.4908 -16.2587 -35.857 
435 1 -49.5112 -14.318 -35.958 
433 3 -51.4336 -14.4396 -37.7023 
328 1 -49.537 -16.2021 -37.8816 
2594 4 -47.6592 -16.2172 -36.0127 
2701 3 -47.6336 -14.3825 -37.734 
4862 3 -43.9239 -16.3321 -36.0477 
2703 3 -45.6497 -14.3397 -36.0724 
2596 4 -45.7308 -16.1748 -38.0299 
4969 1 -43.7579 -14.3226 -37.9789 
4971 4 -41.7487 -14.35 -36.0404 
4864 4 -41.8089 -16.2741 -37.9701 
7130 1 -39.7731 -16.2616 -36.0819 
7239 1 -37.7735 -14.3129 -36.0711 
7237 4 -39.8591 -14.4273 -37.9946 
7132 4 -37.8531 -16.2012 -38.0334 
9398 4 -35.8658 -16.3562 -36.1391 
9505 3 -35.9406 -14.3638 -37.9352 
11666 2 -32.093 -16.372 -36.0369 
9507 3 -33.9989 -14.3192 -36.1528 
9400 1 -34.0063 -16.2625 -37.9582 
11773 3 -32.1474 -14.4708 -38.0445 
11775 4 -30.2135 -14.3384 -36.133 
11668 4 -30.0919 -16.284 -38.1573 
13934 4 -28.2138 -16.3797 -36.1819 
14043 1 -26.2547 -14.4548 -36.2416 
13936 4 -26.2541 -16.3674 -38.2421 
14041 2 -28.2212 -14.3706 -38.1731 
16202 3 -24.3198 -16.3798 -36.3275 
16309 3 -24.3959 -14.3687 -38.1708 
16204 3 -22.5799 -16.3404 -38.2178 
16311 4 -22.3479 -14.3667 -36.2204 
18470 3 -20.4621 -16.3162 -36.2528 
18577 4 -20.4444 -14.5297 -38.223 
18579 1 -18.5144 -14.5251 -36.3326 
20738 4 -16.5833 -16.4627 -36.2901 
20845 4 -16.4927 -14.5164 -38.1737 
18472 3 -18.4219 -16.4914 -38.2681 
434 4 -51.2592 -12.2605 -35.9629 
436 4 -49.4529 -12.4641 -37.9336 
2702 4 -47.55 -12.3615 -35.993 
4970 1 -43.7605 -12.3738 -36.1274 
2704 4 -45.6831 -12.4689 -37.9011 
4972 4 -41.6847 -12.5134 -38.0113 
7238 3 -39.6617 -12.5404 -36.1191 
7240 3 -37.8394 -12.4018 -37.9235 
9506 4 -35.9626 -12.4064 -36.1276 
11774 4 -32.1128 -12.5483 -36.165 
9508 3 -34.041 -12.3077 -38.0563 
11776 3 -30.1333 -12.3597 -38.0403 
14042 4 -28.2127 -12.4663 -36.2322 
14044 4 -26.1935 -12.4276 -38.1487 
16310 1 -24.4469 -12.5635 -36.2651 
18578 4 -20.3619 -12.5613 -36.2387 
16312 3 -22.3894 -12.5792 -38.1618 
20846 4 -16.4961 -12.7258 -36.3318 
18580 1 -18.4408 -12.5726 -38.1875 
542 4 -51.2839 -8.42099 -36.1404 
543 1 -49.2814 -10.3606 -35.9914 
541 4 -51.2886 -10.4596 -37.8668 
544 4 -49.4033 -8.52617 -38.0672 
2810 4 -47.4326 -8.58151 -36.1095 
2809 3 -47.5378 -10.5676 -37.9536 
2811 3 -45.5236 -10.5101 -35.9388 
5078 1 -43.5956 -8.6293 -35.9979 
2812 4 -45.5458 -8.60689 -37.9612 
5077 3 -43.7005 -10.5331 -37.8975 
5079 2 -41.5874 -10.5425 -36.1462 
5080 3 -41.7456 -8.64728 -37.9292 
7346 1 -39.7758 -8.59689 -36.0859 
7347 4 -37.7736 -10.4364 -35.9884 
7348 4 -37.8121 -8.54188 -37.9168 
7345 3 -39.8145 -10.5314 -37.988 
9614 2 -35.7618 -8.58412 -36.1122 
9613 3 -35.8581 -10.5384 -38.0402 
9615 4 -33.9058 -10.5382 -36.0679 
11882 4 -31.9456 -8.6403 -36.1547 
9616 4 -33.8911 -8.54036 -38.0055 
11881 3 -32.1256 -10.5356 -37.9391 
11883 3 -30.098 -10.4436 -36.2401 
11884 3 -30.0533 -8.54174 -38.0598 
14150 1 -28.222 -8.61019 -36.1833 
14151 4 -26.2715 -10.5319 -36.271 
14149 3 -28.236 -10.5029 -38.002 
14152 3 -26.358 -8.64925 -38.0707 
16418 4 -24.3208 -8.6697 -36.2617 
16419 2 -22.4341 -10.6679 -36.2157 
16417 4 -24.3399 -10.483 -38.2176 
16420 4 -22.4231 -8.66078 -38.1576 
18686 3 -20.4397 -8.70944 -36.1892 
18685 4 -20.4314 -10.6558 -38.064 
18687 3 -18.539 -10.7975 -36.2823 
20954 3 -16.6385 -8.70541 -36.2822 
20953 4 -16.5577 -10.6926 -38.109 
18688 1 -18.5767 -8.695 -38.0855 
651 3 -49.5037 -6.48683 -35.9739 
649 4 -51.2122 -6.54125 -37.9632 
2917 4 -47.5098 -6.60839 -37.9078 
2919 4 -45.454 -6.62948 -35.9578 
5185 4 -43.6103 -6.64432 -37.9093 
5187 4 -41.6035 -6.70058 -35.9674 
7455 4 -37.8615 -6.64967 -35.9092 
7453 4 -39.7646 -6.56689 -37.8927 
9721 4 -35.8801 -6.59235 -38.0128 
9723 1 -33.9105 -6.63531 -36.0409 
11989 4 -31.9256 -6.50786 -38.0004 
11991 1 -30.0208 -6.74885 -36.0605 
14257 3 -28.3836 -6.51704 -38.0182 
14259 1 -26.4255 -6.68613 -36.199 
16525 4 -24.3848 -6.75795 -38.1441 
16527 4 -22.3324 -6.80809 -36.1934 
18793 1 -20.4067 -6.82321 -38.1368 
18795 3 -18.4764 -6.86512 -36.3387 
21061 1 -16.664 -6.82319 -38.212 
650 3 -51.0594 -4.62051 -35.8329 
759 2 -49.4081 -2.5999 -35.9711 
652 1 -49.36 -4.48638 -37.8412 
757 3 -51.0296 -2.48881 -37.9584 
2918 4 -47.4582 -4.63963 -36.0562 
3025 4 -47.3955 -2.66919 -37.8674 
5186 3 -43.4275 -4.73184 -35.835 
3027 4 -45.4137 -2.74994 -35.9813 
5293 4 -43.4955 -2.75129 -37.9291 
2920 3 -45.4627 -4.72323 -37.7704 
5295 1 -41.5986 -2.88843 -36.0714 
5188 4 -41.7568 -4.74694 -37.9567 
7454 3 -39.7269 -4.77114 -35.9735 
7563 4 -37.7991 -2.8004 -36.0453 
7456 4 -37.8124 -4.68293 -37.9258 
7561 3 -39.8441 -2.71594 -37.8708 
9722 1 -35.8805 -4.71165 -36.05 
9829 1 -35.8194 -2.72506 -38.1312 
11990 4 -32.0172 -4.69857 -36.0278 
9831 4 -33.8844 -2.74088 -36.0695 
9724 4 -33.9791 -4.64028 -37.9714 
12097 1 -31.9374 -2.81817 -37.9094 
12099 1 -30.1046 -2.88812 -36.0392 
11992 3 -30.0636 -4.71076 -37.9806 
14258 3 -28.3184 -4.80181 -36.0825 
14367 2 -26.379 -2.79261 -36.0749 
14260 4 -26.2757 -4.76516 -38.0392 
14365 4 -28.2599 -2.88463 -38.0138 
16526 4 -24.3097 -4.88064 -36.0887 
16635 3 -22.491 -2.8777 -36.2487 
16633 1 -24.2531 -2.92968 -38.0621 
18901 1 -20.6029 -2.88231 -38.1482 
18794 4 -20.5119 -4.84407 -36.3067 
16528 3 -22.3869 -4.82305 -38.1897 
21062 4 -16.5071 -4.84243 -36.3317 
18903 3 -18.5477 -2.81082 -36.3981 
21169 3 -16.6065 -2.89504 -38.2919 
18796 4 -18.4996 -4.88741 -38.1138 
758 3 -51.2417 -0.599669 -35.7235 
760 3 -49.3075 -0.642599 -37.9582 
867 4 -49.1404 1.18242 -36.018 
3026 3 -47.3691 -0.679252 -36.0892 
5294 2 -43.5421 -0.791566 -36.0414 
3135 2 -45.4368 1.09614 -36.0621 
5401 3 -43.3684 1.1212 -37.9516 
3028 3 -45.4124 -0.70498 -37.832 
5403 4 -41.5923 1.04457 -35.9688 
5296 1 -41.5719 -0.750027 -38.0405 
7562 4 -39.685 -0.88554 -36.0177 
7671 4 -37.6778 1.04229 -36.0421 
7669 3 -39.6844 0.941858 -37.9142 
7564 3 -37.7184 -0.845586 -37.9396 
9830 1 -35.8751 -0.918347 -36.2004 
9937 3 -35.7799 0.956873 -38.0155 
12098 4 -32.0377 -0.85704 -36.0716 
9939 4 -33.9202 0.959246 -35.9935 
9832 3 -33.9969 -0.942224 -38.0983 
12205 4 -31.9272 1.03222 -37.9625 
12207 3 -29.949 0.959537 -35.9421 
12100 4 -30.0733 -0.785746 -37.9763 
14366 1 -28.2436 -0.879542 -35.9784 
14475 3 -26.3553 0.896928 -36.1532 
14368 1 -26.2841 -0.889747 -38.062 
14473 2 -28.145 0.980613 -37.9446 
16634 1 -24.3843 -0.95447 -36.1726 
16741 4 -24.3334 1.05468 -38.0707 
16636 3 -22.5666 -0.974346 -38.0989 
19009 4 -20.4917 0.98036 -38.1922 
16743 1 -22.339 0.878091 -36.1791 
18902 4 -20.4885 -1.0052 -36.3782 
21277 4 -16.5466 0.934655 -38.2835 
21170 3 -16.6127 -1.03825 -36.3471 
19011 4 -18.5041 0.985378 -36.3204 
18904 3 -18.4776 -0.961904 -38.2787 
865 4 -51.0882 1.24446 -37.8708 
866 3 -50.8899 3.18827 -36.0083 
3133 3 -47.3762 1.23927 -37.9492 
868 1 -49.1693 3.20629 -38.0024 
3134 4 -47.1929 3.09709 -36.039 
5402 4 -43.3968 2.92098 -36.0079 
3136 1 -45.266 2.95986 -37.9263 
5404 1 -41.5601 2.8705 -38.0434 
7670 2 -39.7138 2.9666 -35.9712 
7672 4 -37.724 2.83565 -37.9328 
9938 3 -35.7482 2.83079 -36.0878 
12206 4 -31.9391 2.98812 -36.0837 
9940 3 -34.0233 2.79651 -37.8822 
12208 4 -30.0694 2.94714 -38.0173 
14474 4 -28.0235 2.89928 -36.1934 
14476 1 -26.223 2.93434 -38.061 
16742 4 -24.3161 2.82084 -36.1254 
16744 4 -22.4575 2.89615 -38.1168 
19010 1 -20.5459 3.034 -36.2229 
21278 4 -16.5798 2.86515 -36.3283 
19012 4 -18.6381 2.86508 -38.213 
974 4 -51.1211 6.71893 -36.0343 
973 4 -51.0711 5.06192 -38.0331 
976 4 -49.1304 6.7325 -37.9284 
975 4 -49.0653 4.98195 -35.9376 
3241 3 -47.0813 4.94638 -38.0511 
3242 4 -47.2215 6.77066 -36.088 
3243 1 -45.2993 4.81263 -36.0685 
5510 1 -43.3262 6.80277 -36.1457 
5509 3 -43.438 4.8379 -37.9797 
3244 3 -45.2482 6.78448 -37.866 
5511 3 -41.6279 4.86753 -36.1712 
5512 4 -41.4488 6.77243 -38.0425 
7778 3 -39.5314 6.89071 -36.1117 
7779 4 -37.6492 4.74115 -35.9981 
7777 4 -39.5603 4.82548 -37.9637 
7780 4 -37.6813 6.73597 -37.9656 
10046 4 -35.7474 6.80216 -36.1285 
10045 1 -35.7 4.81985 -37.9059 
10047 3 -33.7614 4.85001 -36.1667 
12314 1 -31.9129 6.63268 -36.0953 
12313 4 -31.9962 4.79719 -38.1159 
10048 3 -33.8097 6.74214 -37.9595 
12315 3 -30.0313 4.86261 -36.1225 
12316 4 -30.0537 6.721 -38.0835 
14582 3 -28.0181 6.6447 -36.0989 
14583 3 -26.2349 4.75726 -36.2264 
14584 4 -26.2176 6.74739 -38.1619 
14581 3 -28.1021 4.86593 -38.1033 
16850 4 -24.3371 6.75999 -36.1864 
16849 2 -24.1798 4.79535 -38.1192 
16851 3 -22.3606 4.803 -36.1016 
19118 3 -20.579 6.51981 -36.1099 
19117 3 -20.5278 4.7531 -38.1285 
16852 3 -22.356 6.59905 -38.036 
19120 3 -18.498 6.7082 -38.208 
19119 4 -18.4601 4.7555 -36.2468 
21385 1 -16.6595 4.68677 -38.2284 
21386 3 -16.5572 6.61304 -36.4649 
1083 4 -49.2751 8.62926 -35.917 
1081 1 -51.1221 8.7005 -37.9429 
3349 4 -47.309 8.64204 -37.9295 
3351 1 -45.4135 8.72299 -36.0527 
5617 3 -43.3739 8.67487 -37.9995 
5619 1 -41.4522 8.68813 -36.0069 
7887 1 -37.7179 8.75721 -36.0176 
7885 1 -39.6339 8.73464 -37.9846 
10153 4 -35.7693 8.69029 -38.0208 
10155 4 -33.8628 8.69239 -36.0573 
12421 4 -31.9779 8.67474 -37.9663 
12423 4 -30.0003 8.70328 -36.2214 
14691 3 -26.1634 8.87746 -36.2166 
14689 4 -28.0853 8.6844 -38.0011 
16957 4 -24.3424 8.57864 -38.1325 
16959 4 -22.3538 8.64697 -36.2425 
19225 4 -20.4948 8.57067 -38.1029 
19227 3 -18.5311 8.60891 -36.4195 
21493 1 -16.6866 8.62039 -38.2151 
19228 3 -18.4625 10.4474 -38.1566 
21494 3 -16.6125 10.4357 -36.4245 
8 4 -49.6236 -27.6587 -33.9393 
2273 3 -47.8371 -29.554 -34.0137 
2276 3 -45.8641 -27.611 -34.1361 
2275 1 -45.8771 -29.4636 -32.2818 
4541 4 -43.9196 -29.5496 -34.1444 
4544 1 -41.7557 -27.6564 -34.1011 
6812 4 -37.8336 -27.7432 -34.2277 
6810 3 -39.7916 -27.7673 -32.3207 
6809 4 -39.8958 -29.6707 -34.1451 
6811 3 -37.7926 -29.6574 -32.4245 
9078 4 -35.9464 -27.6903 -32.3014 
9077 1 -35.91 -29.7489 -34.2176 
9080 2 -33.9619 -27.7086 -34.2433 
11346 4 -32.098 -27.8217 -32.3883 
9079 3 -34.0362 -29.6825 -32.4127 
11345 4 -31.9992 -29.5929 -34.3145 
11348 4 -30.096 -27.7248 -34.2305 
11347 3 -30.0201 -29.7381 -32.4064 
13616 4 -26.2234 -27.9222 -34.2744 
13615 3 -26.0886 -29.5744 -32.312 
13613 3 -28.1791 -29.7729 -34.3205 
15882 4 -24.2785 -27.7126 -32.3042 
15881 1 -24.2603 -29.6064 -34.3148 
15883 4 -22.4727 -29.7462 -32.4547 
15884 3 -22.39 -27.7287 -34.4574 
18150 1 -20.4823 -27.8472 -32.4646 
18152 4 -18.4694 -27.9216 -34.3818 
20418 3 -16.4753 -27.8757 -32.3834 
18151 1 -18.4193 -29.7694 -32.4776 
116 3 -49.6188 -23.9065 -33.9607 
2381 3 -47.7247 -25.7553 -34.1796 
2384 4 -45.7539 -23.7724 -34.2556 
4649 4 -43.7669 -25.6433 -34.1385 
2383 4 -45.697 -25.7674 -32.2912 
4650 4 -43.7635 -23.7574 -32.3578 
4652 1 -41.7348 -23.8485 -34.1157 
4651 3 -41.7755 -25.7309 -32.3211 
6917 3 -39.9089 -25.7747 -34.0711 
6920 4 -37.9212 -23.8701 -34.2888 
6919 2 -37.9618 -25.7451 -32.3074 
6918 1 -39.8426 -23.8386 -32.3235 
9185 1 -35.9297 -25.7537 -34.1866 
9186 1 -35.905 -23.8334 -32.3974 
11453 3 -32.1098 -25.6891 -34.2872 
9187 3 -34.0127 -25.7358 -32.403 
11454 3 -32.1095 -23.8919 -32.3331 
9188 3 -33.9389 -23.9369 -34.294 
11455 4 -30.0539 -25.7534 -32.2791 
11456 1 -30.1197 -23.8944 -34.1796 
13721 4 -28.1913 -25.8402 -34.265 
13722 3 -28.1489 -23.858 -32.3355 
13724 1 -26.222 -23.9584 -34.2747 
13723 4 -26.2313 -25.9615 -32.3777 
15989 4 -24.2623 -25.9067 -34.3616 
15990 3 -24.2975 -23.979 -32.3104 
15991 3 -22.2584 -25.9567 -32.4089 
15992 3 -22.1023 -24.0883 -34.357 
18258 4 -20.4814 -24.0336 -32.3681 
18257 3 -20.4055 -25.958 -34.3978 
18260 1 -18.5578 -23.9568 -34.3136 
18259 4 -18.4946 -25.9101 -32.5029 
20526 1 -16.4783 -23.9891 -32.4935 
20525 4 -16.4822 -26.0136 -34.4194 
221 3 -51.1473 -22.1154 -34.0618 
223 3 -49.5716 -22.0719 -32.3642 
2489 4 -47.7226 -21.9701 -34.1579 
4757 1 -43.826 -21.8619 -34.291 
2491 3 -45.5696 -21.7498 -32.2824 
7025 3 -39.9867 -21.9455 -34.0798 
7027 4 -37.834 -21.9822 -32.3391 
9293 1 -35.8646 -21.905 -34.2129 
11561 3 -32.0199 -22.0088 -34.2131 
9295 1 -33.7956 -21.8212 -32.3805 
11563 3 -30.1286 -21.9853 -32.4318 
13829 4 -28.1379 -22.0505 -34.2625 
13831 1 -26.1653 -22.1725 -32.2928 
16097 4 -24.25 -22.1824 -34.2697 
16099 4 -22.3155 -22.1225 -32.3513 
18365 4 -20.4363 -22.1361 -34.3272 
18367 4 -18.4467 -22.0995 -32.5118 
224 1 -49.611 -19.9751 -34.083 
329 3 -51.3855 -17.9786 -34.0046 
2597 1 -47.6595 -18.1027 -34.0967 
2492 4 -45.7651 -20.0136 -34.2575 
4758 3 -43.8145 -20.0045 -32.3538 
4865 1 -43.7102 -18.1856 -34.2009 
2599 3 -45.6404 -18.1817 -32.2955 
4760 1 -41.7831 -20.1081 -34.073 
7028 1 -37.8962 -20.034 -34.1346 
7133 4 -39.7735 -18.0803 -34.0956 
9294 3 -35.8195 -20.0897 -32.4706 
9401 1 -35.9837 -18.1749 -34.1399 
11562 3 -32.017 -19.9552 -32.4235 
9296 3 -34.0542 -20.0237 -34.2294 
11669 3 -32.0379 -18.2677 -34.1082 
9403 1 -33.954 -18.2195 -32.312 
11564 1 -30.1911 -20.0922 -34.1726 
11671 3 -30.0854 -18.151 -32.3652 
13830 3 -28.1686 -20.2102 -32.4272 
13937 1 -28.132 -18.2776 -34.1151 
13832 2 -26.2269 -20.2132 -34.2192 
13939 3 -26.1217 -18.3022 -32.3891 
16205 1 -24.3388 -18.26 -34.2832 
16098 4 -24.3153 -20.2023 -32.3155 
16100 4 -22.3442 -20.1049 -34.3863 
16207 2 -22.3549 -18.2736 -32.3768 
18366 2 -20.3766 -20.0673 -32.5057 
18473 3 -20.466 -18.1599 -34.5057 
18368 3 -18.4092 -20.1254 -34.3611 
18475 4 -18.46 -18.1966 -32.4924 
20634 3 -16.4609 -20.0793 -32.5519 
20741 3 -16.529 -18.3541 -34.3444 
332 3 -49.5859 -16.2529 -34.1503 
2600 4 -45.6219 -16.243 -34.0627 
4973 4 -43.6133 -14.3217 -34.1203 
4868 4 -41.6834 -16.3445 -34.1786 
7136 3 -37.84 -16.1518 -34.3034 
7241 3 -39.7492 -14.5117 -34.0985 
7243 3 -37.8168 -14.3523 -32.2828 
9402 1 -35.9408 -16.122 -32.3725 
9509 3 -35.9227 -14.3814 -34.27 
9404 1 -33.9543 -16.3574 -34.1187 
11777 4 -32.0024 -14.4826 -34.244 
9511 4 -33.9295 -14.3933 -32.3224 
11672 3 -30.0516 -16.4354 -34.2095 
11779 3 -30.0457 -14.4114 -32.3339 
13938 4 -28.0592 -16.3496 -32.3795 
14045 3 -28.1814 -14.5779 -34.4059 
13940 4 -26.203 -16.3643 -34.3717 
14047 4 -26.1832 -14.4822 -32.3986 
16206 3 -24.3488 -16.4898 -32.4216 
16313 4 -24.3289 -14.4364 -34.293 
16208 4 -22.4066 -16.2942 -34.3226 
16315 3 -22.3233 -14.4617 -32.3774 
18474 4 -20.346 -16.2013 -32.4858 
18581 4 -20.3274 -14.3734 -34.3405 
20742 4 -16.515 -16.4926 -32.5865 
18476 1 -18.5452 -16.4124 -34.4646 
18583 1 -18.4734 -14.3957 -32.4986 
20849 3 -16.6337 -14.5135 -34.4546 
437 4 -51.3712 -14.1719 -34.0657 
438 4 -51.3103 -12.2145 -32.2814 
440 3 -49.517 -12.2405 -34.1673 
2705 4 -47.5374 -14.1902 -34.1452 
2708 4 -45.5455 -12.3577 -34.0424 
4976 4 -41.6192 -12.536 -34.1005 
7244 4 -37.8755 -12.5093 -34.1341 
9510 4 -35.9097 -12.4467 -32.2946 
9512 4 -33.9618 -12.4282 -34.1482 
11778 4 -31.923 -12.4604 -32.3234 
11780 4 -30.0964 -12.5364 -34.3045 
14046 3 -28.1794 -12.648 -32.3583 
14048 3 -26.2742 -12.5927 -34.4316 
16314 1 -24.4374 -12.5687 -32.3796 
16316 3 -22.4598 -12.5946 -34.1904 
18582 1 -20.4306 -12.5644 -32.4936 
20850 3 -16.4637 -12.6946 -32.6091 
18584 3 -18.3658 -12.5949 -34.3441 
545 1 -51.2925 -10.2484 -34.1682 
548 3 -49.4777 -8.45452 -34.239 
2813 1 -47.3916 -10.6696 -33.9556 
2816 4 -45.5827 -8.50942 -34.1119 
5081 4 -43.6064 -10.5147 -34.091 
5084 1 -41.6345 -8.67611 -33.967 
7349 2 -39.7209 -10.5285 -34.0627 
7352 4 -37.809 -8.56656 -34.0962 
9617 4 -35.8732 -10.4926 -34.1145 
9620 4 -33.803 -8.64454 -34.2001 
11885 1 -31.9192 -10.5541 -34.2369 
11888 3 -30.0076 -8.67099 -34.1832 
11887 4 -29.829 -10.5962 -32.3394 
14153 1 -28.16 -10.6135 -34.442 
14154 1 -28.1325 -8.57386 -32.4385 
14155 4 -26.3662 -10.6857 -32.4339 
14156 3 -26.3055 -8.62212 -34.2639 
16421 4 -24.4498 -10.6277 -34.248 
16422 1 -24.2966 -8.76755 -32.4652 
16423 1 -22.4536 -10.7064 -32.455 
16424 1 -22.3404 -8.7489 -34.3618 
18689 3 -20.5364 -10.714 -34.3129 
18690 4 -20.4159 -8.76728 -32.5006 
20958 1 -16.5661 -8.87657 -32.3839 
20957 1 -16.5594 -10.7075 -34.4173 
18692 4 -18.5036 -8.72354 -34.3197 
18691 2 -18.4291 -10.7931 -32.5282 
653 3 -51.0798 -6.53802 -34.1322 
2921 4 -47.4161 -6.68923 -33.9979 
5189 4 -43.5066 -6.63172 -33.9269 
7457 3 -39.8453 -6.71751 -34.0635 
9725 4 -35.923 -6.6608 -34.0434 
11993 3 -31.89 -6.62602 -34.1864 
9727 4 -33.8712 -6.68265 -32.2907 
11995 1 -30.049 -6.70787 -32.388 
14261 3 -28.1512 -6.77625 -34.2649 
14263 4 -26.2416 -6.66629 -32.4188 
16529 1 -24.3669 -6.87106 -34.3431 
16531 3 -22.4655 -6.86923 -32.5717 
18797 4 -20.408 -6.7532 -34.3611 
18799 1 -18.5261 -6.68247 -32.3741 
21065 1 -16.6791 -6.93489 -34.3931 
656 3 -49.3776 -4.65476 -34.175 
761 3 -51.0205 -2.71147 -34.062 
3029 4 -47.3314 -2.68142 -34.1791 
763 3 -49.1962 -2.74606 -32.3299 
2922 3 -47.2932 -4.58529 -32.279 
2924 1 -45.4455 -4.65612 -34.1395 
5297 4 -43.4815 -2.75386 -34.0996 
5192 1 -41.4908 -4.74718 -34.0345 
7460 1 -37.8367 -4.82435 -33.9604 
7565 4 -39.6169 -2.82487 -34.046 
9833 2 -35.8402 -2.85065 -34.1477 
9726 3 -35.699 -4.67891 -32.3097 
9728 1 -33.9299 -4.85973 -34.2644 
11994 4 -32.0366 -4.78064 -32.4455 
12101 3 -31.8789 -2.85383 -34.1901 
11996 3 -30.0383 -4.80813 -34.2345 
12103 3 -30.0842 -2.91651 -32.3743 
14369 3 -28.2604 -2.86068 -34.2516 
14262 3 -28.2875 -4.7436 -32.4612 
14264 4 -26.283 -4.79693 -34.2667 
14371 4 -26.2225 -2.88352 -32.3653 
16530 4 -24.2261 -4.86349 -32.4301 
16637 4 -24.3823 -2.82987 -34.2609 
16532 1 -22.3519 -4.84808 -34.3595 
16639 3 -22.4038 -2.88815 -32.5722 
18798 4 -20.4569 -4.84468 -32.4716 
18905 1 -20.5441 -2.85468 -34.4665 
18800 1 -18.4979 -4.80881 -34.5324 
21066 1 -16.4621 -4.91525 -32.4754 
21173 4 -16.5151 -2.98706 -34.3813 
18907 4 -18.4052 -3.01741 -32.5631 
762 4 -51.0593 -0.699738 -32.2777 
764 3 -49.217 -0.681873 -34.191 
3137 3 -47.4176 1.0857 -34.099 
3030 1 -47.4933 -0.793339 -32.3143 
3032 4 -45.3894 -0.769771 -34.1111 
5405 4 -43.5063 0.983345 -33.9535 
5300 4 -41.4183 -0.907662 -34.0332 
7568 3 -37.6499 -0.908138 -34.0889 
7673 3 -39.435 1.05992 -34.1375 
9941 1 -35.9504 1.03456 -34.0628 
9836 4 -33.958 -0.923628 -34.1541 
12209 2 -31.8906 1.07459 -34.1022 
12104 1 -30.0785 -0.921544 -34.0964 
14477 1 -28.1028 1.0805 -34.1715 
14372 3 -26.1183 -0.732815 -34.2618 
16638 1 -24.2991 -0.937453 -32.3266 
16745 3 -24.17 0.862676 -34.3276 
16640 1 -22.347 -0.944917 -34.3103 
16747 4 -22.3719 1.09209 -32.3367 
18906 4 -20.3745 -1.03811 -32.4728 
19013 4 -20.3798 0.963957 -34.2305 
21281 3 -16.5583 0.93065 -34.4142 
18908 1 -18.3715 -0.975846 -34.4567 
19015 1 -18.4057 0.78365 -32.3669 
21174 3 -16.516 -1.16257 -32.448 
869 3 -50.9373 1.36716 -34.2524 
871 3 -49.2514 1.19624 -32.2832 
870 3 -50.9236 3.13535 -32.2893 
872 3 -49.1034 3.04506 -34.0811 
3140 4 -45.3037 2.97434 -34.1137 
5408 3 -41.5121 2.97881 -34.1355 
7676 3 -37.7917 2.84319 -34.0782 
9944 4 -33.813 3.01388 -34.2199 
12212 3 -29.9684 2.90936 -34.1826 
14480 3 -26.0458 2.67453 -34.2312 
16746 3 -24.4125 2.96939 -32.3234 
16748 4 -22.3702 2.89257 -34.2547 
19014 1 -20.4134 2.89799 -32.2914 
19016 4 -18.4768 2.88899 -34.286 
21282 4 -16.6843 2.83335 -32.4235 
977 1 -50.8385 4.95126 -34.0881 
980 3 -49.0356 6.77714 -33.9139 
3245 1 -47.329 4.91736 -34.0166 
3248 4 -45.3405 6.8027 -34.1222 
5513 3 -43.3334 5.02051 -34.2892 
5516 3 -41.5001 6.74651 -34.3005 
7781 4 -39.677 4.8494 -34.2187 
7784 1 -37.7356 6.74877 -34.157 
7782 1 -39.6206 6.81125 -32.3766 
7783 4 -37.711 4.77374 -32.3647 
10049 4 -35.7336 4.90876 -34.2792 
10050 3 -35.8045 6.59174 -32.3196 
10052 1 -33.7963 6.65968 -34.1887 
12317 3 -31.7996 4.80231 -34.169 
10051 3 -34.0095 4.75956 -32.3545 
12320 2 -29.96 6.72871 -34.241 
14585 4 -28.0254 4.67817 -34.2497 
14586 4 -28.0857 6.71414 -32.3026 
14588 4 -26.1783 6.76576 -34.2602 
14587 4 -26.1798 4.78475 -32.3003 
16853 3 -24.1872 4.80936 -34.3181 
16854 2 -24.3041 6.72402 -32.3562 
16856 1 -22.4047 6.63207 -34.2474 
19122 3 -20.36 6.74399 -32.3751 
19121 1 -20.4715 4.77677 -34.1664 
21390 3 -16.5919 6.60611 -32.4321 
21389 4 -16.5688 4.75781 -34.3976 
19124 4 -18.483 6.66939 -34.4125 
19123 3 -18.6335 4.88793 -32.3501 
1085 3 -51.1415 8.73045 -34.0635 
1087 3 -49.25 8.59683 -32.4067 
3353 3 -47.2545 8.55478 -34.2028 
3354 4 -47.294 10.4713 -32.3458 
5621 4 -43.3716 8.63469 -34.2009 
5623 4 -41.4856 8.66443 -32.2886 
7889 3 -39.4949 8.59054 -34.253 
7891 4 -37.669 8.74985 -32.3286 
10157 4 -35.6954 8.69128 -34.1405 
12425 4 -31.9477 8.58462 -34.0997 
14693 4 -28.0436 8.69041 -34.3105 
14695 2 -26.1443 8.66043 -32.2931 
14696 3 -26.0758 10.4724 -34.3358 
16961 4 -24.1796 8.58082 -34.3166 
16963 4 -22.2582 8.6207 -32.3527 
19229 4 -20.3615 8.60697 -34.264 
21497 4 -16.5244 8.54708 -34.4915 
19231 4 -18.4534 8.51576 -32.4909 
12 1 -49.5542 -27.5055 -30.3382 
7 4 -49.6618 -29.4628 -32.0576 
2274 3 -47.6977 -27.6196 -32.1163 
2277 2 -47.6467 -29.4514 -30.1572 
4542 4 -43.7513 -27.66 -32.1688 
2280 1 -45.6638 -27.6819 -30.2962 
4545 3 -43.8309 -29.6586 -30.213 
4548 3 -41.8624 -27.6096 -30.2704 
4543 3 -41.888 -29.5241 -32.2063 
6816 4 -37.8653 -27.7691 -30.3895 
6813 4 -39.8664 -29.6305 -30.3898 
9081 3 -35.956 -29.5864 -30.3797 
9084 4 -34.0361 -27.8125 -30.4574 
11349 4 -31.9275 -29.6478 -30.4162 
11352 4 -30.1268 -27.6818 -30.3621 
13614 4 -28.1796 -27.711 -32.2407 
13620 3 -26.248 -27.5344 -30.3758 
13617 4 -28.1232 -29.6639 -30.3939 
15885 3 -24.4026 -29.6777 -30.4672 
15888 3 -22.3988 -27.7361 -30.4911 
18153 4 -20.5186 -29.6251 -30.5705 
18156 4 -18.4789 -27.8526 -30.6684 
20421 3 -16.5042 -29.6835 -30.6632 
115 3 -49.4733 -25.6827 -32.1772 
120 3 -49.5235 -23.8714 -30.2818 
2382 4 -47.5307 -23.7641 -32.2506 
2385 1 -47.6181 -25.6749 -30.4184 
2388 3 -45.7077 -23.8847 -30.3237 
4653 2 -43.641 -25.7358 -30.3207 
4656 2 -41.8039 -23.9391 -30.3882 
6921 2 -39.8747 -25.8012 -30.413 
6924 4 -37.8115 -23.7882 -30.4 
9189 3 -35.9223 -25.6753 -30.5926 
11457 1 -32.1256 -25.8038 -30.5187 
9192 4 -33.9704 -23.7589 -30.4597 
11460 4 -30.1115 -23.9335 -30.4189 
13725 1 -28.097 -25.6975 -30.4018 
13728 4 -26.1831 -23.8928 -30.3578 
15993 3 -24.2619 -25.9219 -30.4825 
15996 4 -22.3631 -24.1272 -30.4581 
18261 3 -20.6009 -26.0149 -30.5128 
18264 4 -18.4457 -23.9625 -30.5684 
2493 4 -47.6076 -21.8344 -30.2288 
4761 4 -43.7957 -21.8592 -30.3611 
4759 1 -41.8231 -21.9616 -32.2431 
7029 3 -39.9211 -21.9914 -30.4497 
9297 1 -35.8059 -21.8366 -30.5799 
11565 4 -32.0107 -21.8818 -30.528 
13833 4 -28.2188 -22.036 -30.4287 
16101 4 -24.1097 -22.1616 -30.4634 
18369 3 -20.3641 -21.9982 -30.5126 
20637 4 -16.5056 -22.0258 -30.5358 
331 4 -49.4717 -17.9611 -32.215 
228 3 -49.5405 -20.0687 -30.3863 
333 4 -51.2348 -18.0684 -30.4773 
2490 4 -47.5516 -20.1672 -32.238 
2601 2 -47.5479 -18.1286 -30.3327 
2496 3 -45.5579 -19.971 -30.3623 
4869 3 -43.8252 -18.1052 -30.3765 
4867 3 -41.9056 -18.1862 -32.1969 
4764 4 -41.8032 -19.9449 -30.344 
7026 1 -39.9855 -20.1156 -32.2105 
7135 3 -37.7804 -18.0481 -32.2679 
7032 4 -37.8653 -20.0361 -30.4404 
7137 4 -39.7047 -18.0676 -30.3851 
9405 4 -35.8564 -18.0954 -30.4837 
9300 3 -34.0311 -19.9717 -30.4506 
11673 4 -31.9775 -18.2338 -30.4155 
11568 3 -30.1951 -20.0068 -30.543 
13941 4 -28.1663 -18.3298 -30.4682 
13836 4 -26.2341 -20.2365 -30.5132 
16209 3 -24.2746 -18.2148 -30.5095 
16104 3 -22.2428 -20.2234 -30.4306 
18477 3 -20.3596 -18.2395 -30.5026 
18372 4 -18.3837 -20.1649 -30.625 
336 4 -49.4413 -16.1437 -30.342 
2598 4 -47.5516 -16.1669 -32.2326 
4866 4 -43.7446 -16.3522 -32.2517 
2707 4 -45.624 -14.3329 -32.1534 
2604 3 -45.6197 -16.1017 -30.2533 
4975 1 -41.6644 -14.5042 -32.1792 
4872 3 -41.7854 -16.2917 -30.4114 
7134 3 -39.7985 -16.2454 -32.1772 
7140 1 -37.7705 -16.1369 -30.4544 
7245 4 -39.7953 -14.4342 -30.2694 
11670 4 -31.9642 -16.3057 -32.1993 
9408 1 -33.9638 -16.2726 -30.3848 
11781 3 -31.9983 -14.3565 -30.495 
11676 3 -29.9442 -16.3333 -30.4384 
14049 1 -28.1951 -14.4345 -30.5265 
13944 1 -26.0406 -16.4065 -30.5086 
16317 3 -24.286 -14.5245 -30.5246 
16212 4 -22.3744 -16.2965 -30.5081 
18585 4 -20.3255 -14.4084 -30.6056 
20853 4 -16.4933 -14.5061 -30.6306 
18480 4 -18.3966 -16.3868 -30.5456 
439 4 -49.536 -14.1567 -32.1304 
444 3 -49.4783 -12.2679 -30.1257 
2709 1 -47.6391 -14.2052 -30.2178 
2706 3 -47.41 -12.3063 -32.0509 
4977 4 -43.6307 -14.2218 -30.2834 
4974 4 -43.6225 -12.437 -32.2589 
2712 1 -45.5027 -12.3403 -30.2441 
4980 4 -41.5653 -12.4845 -30.27 
7242 4 -39.6216 -12.5808 -32.1607 
7248 3 -37.8353 -12.4844 -30.3352 
9513 1 -35.9007 -14.2852 -30.3387 
9516 3 -33.856 -12.3426 -30.3038 
11784 3 -29.9718 -12.484 -30.3682 
14052 3 -26.3313 -12.5763 -30.45 
16320 4 -22.3681 -12.6074 -30.5614 
18588 3 -18.5076 -12.62 -30.5778 
546 3 -51.3521 -8.48676 -32.216 
547 4 -49.3982 -10.3448 -32.1628 
549 2 -51.3348 -10.3433 -30.2839 
552 1 -49.4356 -8.57808 -30.1543 
2814 4 -47.4785 -8.6067 -32.0233 
2817 4 -47.4651 -10.582 -30.2545 
2815 3 -45.5702 -10.4822 -32.0399 
5082 4 -43.5593 -8.59234 -32.1075 
2820 3 -45.4499 -8.46965 -30.2126 
5085 4 -43.603 -10.5719 -30.2726 
5083 1 -41.614 -10.5334 -32.0666 
5088 1 -41.5379 -8.59747 -30.0826 
7350 2 -39.6639 -8.69407 -32.125 
7351 3 -37.7856 -10.5518 -32.1224 
7353 3 -39.7696 -10.5157 -30.2302 
7356 4 -37.6557 -8.66261 -30.2478 
9618 4 -35.8119 -8.60335 -32.2198 
9621 1 -35.9137 -10.6151 -30.2235 
11886 4 -31.8131 -8.6565 -32.2608 
9619 1 -33.8929 -10.6191 -32.1723 
9624 4 -33.9074 -8.64568 -30.352 
11889 1 -31.8404 -10.5832 -30.343 
11892 4 -29.8757 -8.69821 -30.4011 
14157 3 -27.9627 -10.6881 -30.2598 
14160 4 -26.2078 -8.74173 -30.5674 
16425 4 -24.316 -10.686 -30.455 
16428 2 -22.2297 -8.75456 -30.5223 
18693 3 -20.3612 -10.7471 -30.5949 