ITEM: TIMESTEP
2000
ITEM: NUMBER OF ATOMS
81648
ITEM: BOX BOUNDS ff pp pp
-6.1168983129784692e+01 9.7168983130205959e+01
-2.9853274425080699e+01 5.0853274425080755e+01
-3.8341684971291798e+01 6.5134318232118602e+01
ITEM: ATOMS id type x y z 
3 3 -49.7339 -29.7899 -36.5686 
2270 2 -47.7209 -28.0717 -36.6909 
4538 1 -43.8033 -27.8705 -36.8261 
2271 4 -45.6835 -29.8056 -36.7462 
6806 4 -39.879 -27.9323 -36.8036 
9074 1 -35.9032 -27.8883 -36.733 
11342 1 -32.1303 -27.8865 -36.5394 
13610 3 -28.4233 -28.0122 -36.6824 
15878 1 -24.3279 -27.9936 -36.6533 
18146 1 -20.6336 -28.1585 -36.4961 
20414 4 -16.7621 -28.1297 -36.528 
111 1 -49.6347 -25.9038 -36.6943 
2378 4 -47.6527 -24.0786 -36.7715 
2379 4 -45.7596 -25.9308 -36.823 
4646 4 -43.7001 -24.0337 -36.8171 
4647 3 -41.7688 -26.0151 -36.732 
6915 2 -37.9007 -26.1077 -36.7127 
6914 4 -39.9431 -24.0935 -36.7491 
9182 4 -36.0602 -24.1197 -36.6519 
9183 1 -34.1026 -25.9684 -36.6115 
11450 1 -32.0681 -24.2019 -36.6657 
11451 3 -30.2879 -26.0553 -36.6071 
13718 2 -28.3596 -24.1888 -36.6568 
13719 4 -26.3019 -26.1579 -36.6843 
15986 4 -24.2439 -24.2403 -36.5953 
15987 3 -22.4101 -26.1979 -36.6582 
18254 3 -20.4803 -24.1094 -36.5097 
18255 2 -18.7879 -26.1538 -36.5722 
20522 4 -16.6479 -24.3719 -36.5832 
219 1 -49.5793 -22.057 -37.0256 
2487 3 -45.7028 -22.0803 -36.8257 
4755 3 -41.8601 -22.1701 -36.7342 
7023 3 -37.9161 -22.0527 -36.7843 
9291 1 -34.0239 -22.1987 -36.673 
11559 4 -30.2148 -22.2548 -36.7345 
13827 3 -26.3667 -22.2888 -36.675 
16095 4 -22.4321 -22.3234 -36.5739 
18363 3 -18.6057 -22.3511 -36.5718 
20630 3 -16.8149 -20.5825 -36.5125 
327 4 -49.5811 -18.3631 -36.9596 
2486 4 -47.6241 -20.2483 -37.0298 
4754 4 -43.7301 -20.1783 -36.7979 
2595 3 -45.6789 -18.2447 -36.8377 
4863 4 -41.8832 -18.3484 -36.8057 
7022 4 -39.7994 -20.2945 -36.7834 
7131 3 -37.9212 -18.4009 -36.7517 
9290 3 -36.0278 -20.2743 -36.7117 
11558 3 -32.0297 -20.3553 -36.7127 
9399 2 -33.9705 -18.3367 -36.6593 
11667 1 -30.2155 -18.5196 -36.6711 
13826 3 -28.3438 -20.3441 -36.6557 
13935 4 -26.3427 -18.3681 -36.6874 
16094 1 -24.3398 -20.4217 -36.7 
16203 1 -22.4188 -18.3599 -36.6438 
18362 4 -20.5007 -20.4152 -36.548 
18471 4 -18.5495 -18.4717 -36.6051 
326 1 -51.403 -16.3302 -36.9204 
435 1 -49.527 -14.4202 -36.9592 
2594 4 -47.5505 -16.366 -36.9046 
4862 3 -43.7316 -16.4702 -37.023 
2703 3 -45.5021 -14.5225 -36.9562 
4971 4 -41.8676 -14.6549 -36.8945 
7130 1 -39.8223 -16.5235 -36.733 
7239 1 -37.946 -14.5475 -36.6583 
9398 4 -36.1373 -16.4627 -36.7624 
11666 2 -32.1854 -16.4285 -36.7056 
9507 3 -34.0591 -14.6081 -36.8312 
11775 4 -30.2086 -14.7006 -36.7291 
13934 4 -28.2959 -16.7125 -36.7201 
14043 1 -26.243 -14.6648 -36.6187 
16202 3 -24.3509 -16.6434 -36.5876 
16311 4 -22.4917 -14.6682 -36.6507 
18470 3 -20.4363 -16.5642 -36.5659 
20738 4 -16.6516 -16.6905 -36.4191 
18579 1 -18.5353 -14.7241 -36.4677 
434 4 -51.4421 -12.3603 -36.8273 
2702 4 -47.6262 -12.5172 -36.9713 
4970 1 -43.823 -12.5939 -36.9524 
7238 3 -39.9337 -12.7698 -36.7529 
9506 4 -35.9261 -12.6335 -36.7335 
11774 4 -32.1138 -12.7383 -36.6808 
14042 4 -28.2082 -12.8225 -36.7628 
16310 1 -24.4151 -12.8145 -36.6726 
18578 4 -20.5282 -12.7715 -36.5788 
20846 4 -16.6763 -12.8187 -36.4985 
542 4 -51.1751 -8.42573 -37.061 
543 1 -49.4923 -10.5501 -36.8672 
2810 4 -47.495 -8.63354 -36.991 
2811 3 -45.6057 -10.6474 -36.8918 
5078 1 -43.7068 -8.76156 -36.9569 
5079 2 -41.7155 -10.6947 -36.9744 
7346 1 -39.823 -8.78708 -37.0302 
7347 4 -37.895 -10.7802 -36.8815 
9614 2 -35.9403 -8.81743 -36.8948 
9615 4 -33.9487 -10.749 -36.8792 
11882 4 -31.9861 -8.82622 -36.6969 
11883 3 -30.1056 -10.7658 -36.6951 
14150 1 -28.2648 -8.93969 -36.6749 
14151 4 -26.3491 -10.874 -36.7011 
16418 4 -24.4585 -8.87817 -36.6315 
16419 2 -22.49 -10.8752 -36.6361 
18686 3 -20.5338 -8.82752 -36.4783 
18687 3 -18.6093 -10.8464 -36.4772 
20954 3 -16.7936 -9.05804 -36.4068 
18688 1 -18.6842 -8.91099 -38.2656 
651 3 -49.4695 -6.41861 -36.8914 
2919 4 -45.6048 -6.68809 -36.9087 
5187 4 -41.7266 -6.76656 -36.8862 
7455 4 -38.0114 -6.84407 -36.8758 
9723 1 -33.9029 -7.03698 -36.6427 
11990 4 -32.0564 -5.08229 -36.6039 
11991 1 -30.0801 -6.91279 -36.6444 
14259 1 -26.4549 -6.93725 -36.6697 
14258 3 -28.2686 -5.04591 -36.6646 
16527 4 -22.5387 -6.98736 -36.5728 
16526 4 -24.4449 -5.09271 -36.7103 
18794 4 -20.6537 -5.08001 -36.5632 
18795 3 -18.7871 -6.92163 -36.5187 
21062 4 -16.7358 -5.04773 -36.5637 
21061 1 -16.7774 -7.1009 -38.2805 
650 3 -51.2647 -4.77216 -36.9652 
759 2 -49.5691 -2.75514 -37.0074 
2918 4 -47.4728 -4.76849 -36.9247 
5186 3 -43.57 -4.77184 -36.8126 
3027 4 -45.5712 -2.94766 -36.954 
5295 1 -41.6599 -3.03409 -36.9293 
7454 3 -39.8464 -4.91318 -36.6802 
7563 4 -37.9044 -2.90187 -36.8837 
9722 1 -36.0137 -4.97703 -36.8265 
9831 4 -34.173 -2.94578 -36.7371 
12099 1 -30.2361 -3.12911 -36.7404 
14367 2 -26.4122 -3.14677 -36.7246 
16635 3 -22.5499 -3.10618 -36.5911 
18903 3 -18.6776 -3.15292 -36.5186 
867 4 -49.4385 0.954347 -36.8893 
758 3 -51.1979 -0.978327 -36.5153 
3026 3 -47.4419 -0.846834 -36.9833 
5294 2 -43.6288 -0.979678 -36.9186 
3135 2 -45.531 0.870104 -36.8163 
5403 4 -41.6918 0.847924 -36.8138 
7562 4 -39.7856 -0.929432 -36.8937 
7671 4 -37.8473 0.876158 -36.8378 
9830 1 -36.0441 -1.03639 -36.7747 
12098 4 -32.2035 -1.22618 -36.7903 
9939 4 -34.1187 0.792932 -36.8393 
12207 3 -30.1697 0.674867 -36.6528 
14366 1 -28.1445 -1.15166 -36.6428 
14475 3 -26.2811 0.708495 -36.6722 
16634 1 -24.3897 -1.19862 -36.6064 
16743 1 -22.5508 0.528666 -36.5775 
18902 4 -20.5771 -1.30807 -36.631 
21170 3 -16.7595 -1.37697 -36.5297 
19011 4 -18.6257 0.694517 -36.5059 
866 3 -51.0904 2.83557 -36.8573 
3134 4 -47.4243 2.86086 -36.7759 
5402 4 -43.5753 2.81295 -36.893 
7670 2 -39.846 2.70897 -36.717 
9938 3 -35.8595 2.65612 -36.8549 
12206 4 -32.2191 2.64694 -36.8803 
14474 4 -28.2619 2.60927 -36.7646 
16742 4 -24.3752 2.55072 -36.5513 
19010 1 -20.6025 2.77689 -36.5453 
21278 4 -16.7995 2.6165 -36.4572 
974 4 -51.2844 6.54397 -36.4447 
975 4 -49.4235 4.73478 -36.6698 
3242 4 -47.4374 6.55411 -36.8242 
3243 1 -45.5057 4.74988 -36.7956 
5510 1 -43.5716 6.55623 -36.7379 
5511 3 -41.684 4.57564 -36.8332 
7778 3 -39.8014 6.70962 -36.857 
7779 4 -37.8207 4.65215 -36.7064 
10046 4 -35.9489 6.52952 -36.7164 
10047 3 -34.0381 4.54781 -36.7527 
12314 1 -32.1348 6.3435 -36.9186 
12315 3 -30.1561 4.42479 -36.7922 
14582 3 -28.227 6.4382 -36.6922 
14583 3 -26.4265 4.5116 -36.6562 
16850 4 -24.4489 6.41781 -36.4935 
16851 3 -22.3873 4.53698 -36.5902 
19118 3 -20.5467 6.34652 -36.5504 
21386 3 -16.6855 6.51013 -36.5867 
19119 4 -18.6334 4.6796 -36.5915 
1083 4 -49.4017 8.54846 -36.7381 
1082 3 -51.4323 10.4319 -36.9682 
3351 1 -45.5601 8.47423 -36.8675 
5619 1 -41.6654 8.49506 -36.7989 
7887 1 -37.9471 8.51812 -36.7704 
7886 3 -39.7403 10.421 -36.8262 
10154 4 -35.9086 10.3282 -36.618 
12422 3 -32.1393 10.3468 -36.7384 
10155 4 -33.9615 8.4321 -36.8007 
12423 4 -30.2048 8.4629 -36.7547 
14691 3 -26.3824 8.53151 -36.755 
16959 4 -22.4878 8.33607 -36.5688 
16958 3 -24.3956 10.3364 -36.6233 
19226 4 -20.5716 10.1686 -36.6026 
21493 1 -16.7235 8.39534 -38.2791 
19227 3 -18.5301 8.24897 -36.4523 
19228 3 -18.556 10.2245 -38.2915 
21494 3 -16.7998 10.3425 -36.4845 
8 4 -49.5793 -27.937 -34.692 
2274 3 -47.5489 -27.9493 -32.9214 
2273 3 -47.6583 -29.8416 -34.7753 
2275 1 -45.6378 -29.7608 -32.9534 
2276 3 -45.6926 -27.8658 -34.8535 
4542 4 -43.7491 -28.0022 -32.9339 
4541 4 -43.7165 -29.8031 -34.8382 
4544 1 -41.8248 -27.877 -34.8624 
4543 3 -41.8495 -29.8436 -32.8679 
6812 4 -37.9532 -27.9279 -34.8785 
6810 3 -39.9516 -27.9134 -33.0315 
9078 4 -36.1126 -28.0705 -32.9133 
9080 2 -34.0478 -27.9981 -34.7455 
11346 4 -32.1834 -28.0115 -32.7459 
11348 4 -30.2474 -27.9226 -34.6598 
13616 4 -26.3428 -27.9619 -34.7991 
13614 4 -28.2224 -27.9918 -32.902 
15882 4 -24.5793 -27.9693 -32.7793 
15884 3 -22.5258 -27.9448 -34.6983 
18150 1 -20.7699 -27.956 -32.8087 
20418 3 -16.6614 -28.2507 -32.5871 
18152 4 -18.6545 -28.1512 -34.5514 
116 3 -49.4854 -24.3522 -34.7241 
115 3 -49.3603 -25.9822 -32.8109 
2381 3 -47.7533 -26.0009 -34.7431 
2382 4 -47.6676 -23.9777 -32.8827 
4649 4 -43.7566 -26.0009 -34.94 
2384 4 -45.7472 -24.0568 -34.8121 
2383 4 -45.6737 -25.9893 -32.9925 
4650 4 -43.8395 -24.022 -33.0668 
4651 3 -41.6927 -26.0328 -33.0319 
4652 1 -41.8073 -24.1819 -34.9664 
6917 3 -39.9441 -26.0609 -34.8581 
6918 1 -39.9196 -24.0656 -33.0954 
6920 4 -38.0158 -23.9364 -34.9284 
6919 2 -37.9124 -25.9137 -32.9829 
9185 1 -36.0482 -26.0421 -34.7781 
9186 1 -35.9089 -24.1403 -32.9789 
11453 3 -32.2553 -25.9489 -34.6887 
9187 3 -34.0492 -26.0593 -32.8914 
11454 3 -32.2427 -24.1226 -33.0445 
9188 3 -34.1009 -24.0728 -34.8593 
11455 4 -30.1861 -26.0604 -32.8696 
11456 1 -30.2483 -24.1975 -34.6881 
13722 3 -28.358 -24.1339 -32.7796 
13721 4 -28.2708 -26.0616 -34.7303 
13724 1 -26.3494 -24.1972 -34.7523 
13723 4 -26.4936 -26.0467 -32.8466 
15989 4 -24.3972 -26.1219 -34.6857 
15990 3 -24.4528 -24.1053 -32.8962 
15992 3 -22.407 -24.2768 -34.6909 
15991 3 -22.6875 -26.0705 -32.8026 
18258 4 -20.637 -24.3264 -32.7827 
18257 3 -20.588 -26.1479 -34.7385 
20526 1 -16.862 -24.185 -32.8727 
18260 1 -18.6609 -24.2459 -34.6354 
18259 4 -18.695 -26.1826 -32.7013 
20525 4 -16.8077 -26.27 -34.6425 
221 3 -50.778 -22.2273 -34.8687 
223 3 -49.4281 -22.0035 -33.0513 
2489 4 -47.6836 -22.1705 -35.0593 
4757 1 -43.8156 -22.13 -34.9278 
2491 3 -45.638 -21.9751 -32.9456 
4759 1 -41.8794 -22.1125 -33.026 
7025 3 -40.0115 -22.1233 -34.7959 
7027 4 -37.9302 -22.1108 -32.9986 
9293 1 -35.9835 -22.0835 -34.862 
11561 3 -32.1651 -22.3115 -34.6714 
9295 1 -34.0691 -22.1536 -33.0283 
11563 3 -30.3456 -22.1962 -32.9082 
13829 4 -28.2768 -22.2541 -34.6992 
13831 1 -26.4484 -22.3611 -32.8157 
16097 4 -24.4358 -22.3128 -34.787 
16099 4 -22.5276 -22.3313 -32.7945 
18365 4 -20.5112 -22.3563 -34.5968 
18367 4 -18.6552 -22.2799 -32.648 
20633 3 -16.8253 -22.3226 -34.8281 
224 1 -49.4829 -20.0918 -34.9554 
329 3 -51.1941 -18.0876 -35.0721 
331 4 -49.5698 -18.1431 -33.0562 
2597 1 -47.619 -18.167 -35.0201 
2490 4 -47.6924 -20.2373 -33.0252 
2492 4 -45.8372 -20.1153 -34.977 
4758 3 -43.8506 -20.2209 -33.0978 
4865 1 -43.8976 -18.2924 -34.8992 
2599 3 -45.8265 -18.2905 -33.0407 
4760 1 -41.8337 -20.2148 -34.8941 
4867 3 -41.9672 -18.3451 -33.0451 
7028 1 -37.9771 -20.1799 -34.8933 
7133 4 -39.9815 -18.3171 -34.9309 
7135 3 -37.9505 -18.3222 -33.0313 
7026 1 -39.9299 -20.136 -32.9562 
9294 3 -35.9662 -20.2756 -33.1141 
9401 1 -36.068 -18.3864 -34.9688 
9296 3 -34.1974 -20.2873 -34.9431 
11562 3 -32.2414 -20.3169 -33.1175 
11669 3 -32.1172 -18.4128 -34.7905 
9403 1 -33.9775 -18.5212 -33.0255 
11564 1 -30.3526 -20.3972 -34.8452 
11671 3 -30.3123 -18.5276 -32.9676 
13937 1 -28.3761 -18.4908 -34.7258 
13830 3 -28.4149 -20.4476 -32.9328 
13832 2 -26.38 -20.442 -34.7628 
13939 3 -26.3298 -18.4778 -32.8723 
16205 1 -24.4194 -18.4027 -34.7624 
16098 4 -24.4738 -20.4552 -32.7966 
16100 4 -22.4909 -20.408 -34.6679 
16207 2 -22.589 -18.5343 -32.7662 
18366 2 -20.5849 -20.3195 -32.7036 
18473 3 -20.5248 -18.5197 -34.6801 
20741 3 -16.7184 -18.6068 -34.5402 
18368 3 -18.5656 -20.4019 -34.619 
18475 4 -18.6537 -18.5577 -32.7474 
20634 3 -16.6447 -20.3362 -32.5879 
332 3 -49.57 -16.3496 -35.093 
439 4 -49.5406 -14.4031 -33.1529 
2598 4 -47.6309 -16.221 -33.0619 
2600 4 -45.6486 -16.224 -34.91 
4973 4 -43.7412 -14.4332 -34.9449 
4866 4 -43.8699 -16.2867 -32.9637 
4868 4 -41.8805 -16.4367 -34.8534 
4975 1 -41.733 -14.5104 -32.9118 
7136 3 -37.9826 -16.483 -34.8269 
7134 3 -39.9646 -16.4878 -32.9589 
7241 3 -39.8359 -14.759 -34.8857 
7243 3 -37.9335 -14.5705 -32.9579 
9402 1 -36.1099 -16.4431 -33.0557 
9509 3 -36.1001 -14.525 -34.8758 
9404 1 -34.1698 -16.3661 -34.8032 
11777 4 -32.1473 -14.615 -34.8172 
9511 4 -34.208 -14.4873 -32.849 
11670 4 -32.1556 -16.5405 -32.9374 
11672 3 -30.2373 -16.6884 -34.8237 
11779 3 -30.283 -14.7117 -32.9566 
13938 4 -28.3283 -16.6239 -32.9421 
13940 4 -26.3896 -16.6343 -34.7473 
14045 3 -28.3346 -14.868 -34.7705 
14047 4 -26.3172 -14.6558 -32.9254 
16206 3 -24.4104 -16.6971 -32.8888 
16313 4 -24.4199 -14.7629 -34.7391 
16315 3 -22.5743 -14.6479 -32.9698 
16208 4 -22.4099 -16.6192 -34.7234 
18474 4 -20.6264 -16.6294 -32.7736 
18581 4 -20.5038 -14.7453 -34.7446 
20742 4 -16.7036 -16.6649 -32.6938 
18476 1 -18.6086 -16.7481 -34.6423 
20849 3 -16.6821 -14.7505 -34.5983 
18583 1 -18.6866 -14.7387 -32.8725 
437 4 -51.4158 -14.2647 -35.2254 
438 4 -51.4117 -12.4268 -33.4731 
440 3 -49.4397 -12.4777 -35.0637 
2705 4 -47.5955 -14.3193 -35.0921 
2706 3 -47.6306 -12.4851 -33.0463 
2707 4 -45.8167 -14.3052 -32.9374 
2708 4 -45.6417 -12.5531 -34.9262 
4974 4 -43.7845 -12.4436 -32.9277 
4976 4 -41.8229 -12.5371 -34.9241 
7244 4 -37.9165 -12.606 -34.8668 
7242 4 -39.8398 -12.7078 -33.003 
9510 4 -36.0996 -12.6533 -32.9188 
9512 4 -33.9598 -12.5634 -34.8639 
11778 4 -32.1202 -12.6911 -32.911 
11780 4 -30.1455 -12.6951 -34.8113 
14048 3 -26.3197 -12.7137 -34.8486 
14046 3 -28.2215 -12.7982 -32.9702 
16314 1 -24.4527 -12.8658 -32.9013 
16316 3 -22.5622 -12.7362 -34.6867 
18582 1 -20.6315 -12.7553 -32.9133 
20850 3 -16.6684 -12.9721 -32.8791 
18584 3 -18.6643 -12.8087 -34.7006 
545 1 -51.3835 -10.1975 -35.1404 
548 3 -49.3316 -8.68212 -35.0648 
546 3 -51.3375 -8.56493 -33.17 
547 4 -49.4807 -10.5946 -33.2138 
2813 1 -47.4333 -10.614 -34.9772 
2814 4 -47.6501 -8.69823 -32.9974 
2816 4 -45.7026 -8.6345 -35.008 
5081 4 -43.7918 -10.6475 -34.8452 
2815 3 -45.6169 -10.5576 -32.9189 
5082 4 -43.8391 -8.54157 -32.9876 
5084 1 -41.8914 -8.74867 -34.9508 
5083 1 -41.752 -10.686 -32.9613 
7349 2 -39.8751 -10.6269 -35.0057 
7352 4 -37.9842 -8.67494 -34.9324 
7350 2 -39.9216 -8.74312 -32.9946 
7351 3 -38.0321 -10.7015 -32.9047 
9617 4 -36.0767 -10.7197 -34.8542 
9618 4 -36.1029 -8.81118 -32.9321 
9620 4 -34.0517 -8.86117 -34.8323 
11885 1 -31.966 -10.7366 -34.8905 
11886 4 -32.0352 -8.82016 -32.9669 
9619 1 -34.1009 -10.794 -32.9171 
11888 3 -30.0939 -8.93789 -34.8596 
11887 4 -30.1507 -10.884 -32.8314 
14154 1 -28.3526 -8.86611 -32.9492 
14153 1 -28.1878 -10.9226 -34.8284 
14156 3 -26.5021 -8.83231 -34.7793 
14155 4 -26.4701 -10.8414 -32.8354 
16421 4 -24.5024 -10.8016 -34.7215 
16422 1 -24.4512 -8.93755 -32.9048 
16424 1 -22.4921 -8.91913 -34.7615 
16423 1 -22.4283 -10.9721 -32.8425 
18689 3 -20.6269 -10.8622 -34.723 
18690 4 -20.6643 -8.87304 -32.7793 
20958 1 -16.7153 -8.92667 -32.7604 
18692 4 -18.6688 -8.97247 -34.6104 
18691 2 -18.7389 -10.9791 -32.776 
20957 1 -16.7434 -10.9424 -34.6252 
653 3 -51.1713 -6.5277 -35.0992 
655 4 -49.4045 -6.62213 -33.1101 
2921 4 -47.605 -6.66772 -34.9533 
5189 4 -43.675 -6.74171 -34.9332 
2923 4 -45.7717 -6.76784 -33.1272 
5191 1 -41.797 -6.79348 -33.1395 
7457 3 -39.9708 -6.78856 -34.903 
7459 3 -37.9567 -6.84418 -32.9426 
9725 4 -35.9173 -6.75453 -34.9113 
11993 3 -32.0429 -6.91476 -34.9063 
9727 4 -34.1251 -6.84062 -32.9961 
11994 4 -32.1702 -5.06262 -32.8826 
11995 1 -30.2874 -6.85999 -32.8704 
11996 3 -30.0574 -5.08423 -34.8222 
14261 3 -28.3154 -7.00231 -34.7873 
14263 4 -26.4687 -6.85267 -32.8149 
14264 4 -26.3863 -5.11673 -34.8142 
16529 1 -24.4503 -7.01512 -34.6755 
16531 3 -22.6295 -7.026 -32.8468 
16530 4 -24.4586 -5.07279 -32.7459 
18797 4 -20.6202 -6.95665 -34.6074 
18798 4 -20.6989 -5.08405 -32.6866 
18799 1 -18.6359 -6.98061 -32.6804 
21065 1 -16.8057 -7.13563 -34.6497 
21066 1 -16.753 -5.0916 -32.6849 
18800 1 -18.6591 -5.07172 -34.7308 
654 1 -51.2075 -4.70708 -33.14 
656 3 -49.5056 -4.77496 -34.9908 
761 3 -51.1831 -2.90701 -35.0116 
763 3 -49.4035 -2.89833 -33.1617 
2922 3 -47.639 -4.65697 -32.981 
3029 4 -47.5261 -2.85354 -35.1136 
5190 4 -43.6769 -4.77852 -33.002 
2924 1 -45.6041 -4.78608 -35.0257 
5297 4 -43.6309 -2.93215 -34.9511 
3031 2 -45.7286 -2.8833 -33.0733 
5192 1 -41.7094 -4.84564 -34.9781 
5299 3 -41.7359 -2.89019 -32.9862 
7460 1 -37.9864 -4.97412 -34.8378 
7565 4 -39.7445 -2.96226 -34.983 
7458 3 -39.8308 -5.03536 -33.16 
7567 4 -37.9617 -3.02893 -32.8976 
9833 2 -36.087 -3.01291 -34.8709 
9726 3 -35.9918 -4.83187 -32.974 
9728 1 -34.0326 -4.85615 -34.8228 
12101 3 -32.097 -3.05513 -34.8141 
9835 1 -34.1099 -2.98131 -32.8727 
14262 3 -28.4699 -5.0154 -32.8964 
12103 3 -30.2604 -3.17398 -32.9771 
14369 3 -28.4545 -3.12234 -34.8217 
14371 4 -26.4181 -3.07344 -32.8798 
16637 4 -24.4794 -3.18787 -34.7768 
16639 3 -22.5268 -3.12271 -32.8469 
16532 1 -22.5145 -4.99216 -34.6635 
18905 1 -20.5559 -3.20847 -34.6386 
21173 4 -16.7151 -3.19751 -34.6389 
18907 4 -18.597 -3.20836 -32.7144 
764 3 -49.3781 -0.856597 -35.0149 
762 4 -51.3001 -0.961155 -33.1418 
871 3 -49.4242 0.960168 -33.0838 
3137 3 -47.5307 0.874384 -34.8662 
3030 1 -47.6329 -0.969641 -33.0615 
3032 4 -45.6306 -0.948487 -35.0103 
5405 4 -43.5867 0.883914 -34.8495 
5298 3 -43.689 -0.971517 -32.9664 
3139 4 -45.6952 0.911164 -33.0194 
5300 4 -41.6729 -1.09611 -34.8721 
5407 4 -41.6708 0.894208 -33.0134 
7568 3 -37.8374 -1.12655 -34.8544 
7673 3 -39.8077 0.966834 -34.8034 
7566 4 -39.8001 -1.11204 -33.0098 
7675 3 -37.7873 0.908511 -32.794 
9941 1 -36.0933 0.925179 -34.8656 
9834 4 -35.9958 -1.09146 -32.934 
9836 4 -34.0662 -1.06073 -34.8301 
12209 2 -32.0813 0.778896 -34.8896 
12102 3 -32.118 -1.25841 -32.9502 
9943 4 -34.0796 0.771861 -32.9241 
12104 1 -30.1736 -1.29451 -34.8078 
12211 4 -30.1945 0.77143 -32.9263 
14372 3 -26.273 -1.07824 -34.8089 
14479 4 -26.37 0.857493 -32.744 
14477 1 -28.1932 0.743958 -34.8231 
14370 2 -28.3482 -1.17683 -32.9762 
16638 1 -24.4753 -1.21644 -32.9027 
16745 3 -24.3829 0.647361 -34.5985 
16640 1 -22.5614 -1.27028 -34.6179 
16747 4 -22.4691 0.747558 -32.6864 
18906 4 -20.5831 -1.24402 -32.6334 
19013 4 -20.5958 0.709723 -34.7137 
21174 3 -16.871 -1.31598 -32.5967 
18908 1 -18.6555 -1.2929 -34.5458 
21281 3 -16.7218 0.570824 -34.5378 
19015 1 -18.6557 0.718559 -32.6312 
869 3 -51.1224 1.17103 -34.9426 
872 3 -49.5126 2.75827 -34.8613 
870 3 -51.0407 2.7415 -33.1426 
3138 4 -47.4903 2.85202 -32.978 
3140 4 -45.5967 2.81939 -34.8103 
5406 4 -43.558 2.66711 -32.904 
5408 3 -41.6582 2.84922 -34.8586 
7676 3 -37.9865 2.68296 -34.6807 
7674 3 -39.6901 2.81035 -32.8372 
9942 3 -35.9836 2.68465 -32.9669 
9944 4 -33.9338 2.6042 -34.9407 
12210 3 -32.1299 2.62522 -32.9173 
12212 3 -30.2568 2.54731 -34.8465 
14478 4 -28.2583 2.63531 -32.9284 
14480 3 -26.2872 2.64536 -34.8512 
16746 3 -24.4925 2.55181 -32.7367 
16748 4 -22.58 2.57785 -34.6535 
19014 1 -20.5384 2.63608 -32.7187 
19016 4 -18.7077 2.71176 -34.5958 
21282 4 -16.8295 2.51353 -32.6528 
977 1 -51.3702 4.62293 -34.7895 
980 3 -49.2666 6.73713 -34.711 
978 4 -51.3744 6.8091 -33.2643 
979 3 -49.4762 4.62234 -33.0402 
3245 1 -47.585 4.75334 -34.7832 
3246 3 -47.5283 6.63269 -32.909 
3248 4 -45.5026 6.53453 -34.8837 
5513 3 -43.5092 4.64439 -34.9998 
3247 4 -45.4322 4.63146 -32.8738 
5514 3 -43.4971 6.52535 -32.979 
5516 3 -41.665 6.55785 -35.0545 
5515 4 -41.7197 4.61763 -32.9522 
7781 4 -39.9329 4.71208 -34.8389 
7784 1 -37.9446 6.52254 -34.871 
7782 1 -39.8055 6.58503 -33.003 
7783 4 -37.8844 4.63353 -32.9487 
10049 4 -35.9254 4.55148 -34.8966 
10050 3 -35.939 6.43338 -33.0177 
10052 1 -33.991 6.38115 -34.8422 
12317 3 -32.1952 4.39029 -34.9543 
10051 3 -33.9958 4.45663 -32.9655 
12318 4 -32.0484 6.53196 -33.0127 
12320 2 -30.2477 6.41402 -34.9653 
12319 4 -30.1935 4.49908 -32.9927 
14585 4 -28.224 4.44159 -34.8111 
14586 4 -28.2446 6.44744 -32.8448 
14588 4 -26.3797 6.44014 -34.7366 
14587 4 -26.3335 4.45127 -32.8181 
16853 3 -24.3365 4.50391 -34.747 
16854 2 -24.4807 6.37916 -32.7661 
16856 1 -22.4852 6.38768 -34.6727 
16855 4 -22.5895 4.47058 -32.7428 
19122 3 -20.6845 6.30171 -32.6008 
19121 1 -20.5611 4.57881 -34.5614 
21389 4 -16.8161 4.54096 -34.5377 
19124 4 -18.6901 6.48818 -34.5816 
19123 3 -18.7148 4.65174 -32.597 
21390 3 -16.804 6.42482 -32.6205 
1085 3 -51.572 8.86086 -35.1135 
1087 3 -49.4192 8.55614 -33.1384 
1088 4 -49.5329 10.4655 -35.0003 
3353 3 -47.5225 8.36041 -34.9671 
5621 4 -43.6748 8.46037 -34.8816 
3355 4 -45.5751 8.49204 -33.0786 
3356 4 -45.5547 10.4058 -35.0402 
5624 4 -41.7011 10.4084 -34.9209 
5623 4 -41.7065 8.53118 -33.0558 
7889 3 -39.6543 8.44178 -34.9941 
7891 4 -37.8385 8.43123 -32.98 
7892 3 -37.9463 10.3923 -34.8253 
10157 4 -35.86 8.30206 -34.8989 
10158 1 -35.9734 10.4199 -33.0162 
12425 4 -32.1244 8.43059 -34.8486 
10159 3 -34.13 8.48606 -32.8636 
10160 3 -34.1075 10.4624 -34.7191 
12426 3 -32.2152 10.3238 -32.7463 
12428 3 -30.307 10.1888 -34.9053 
12427 4 -30.1111 8.37429 -32.96 
14693 4 -28.2319 8.40702 -34.8893 
14695 2 -26.3032 8.41724 -32.7458 
14696 3 -26.4176 10.2819 -34.782 
14694 4 -28.3092 10.2921 -32.8396 
16961 4 -24.3285 8.33051 -34.683 
16963 4 -22.5024 8.34107 -32.7506 
16962 2 -24.3989 10.2546 -32.7584 
16964 3 -22.705 10.323 -34.8077 
19229 4 -20.7083 8.31099 -34.6723 
19230 4 -20.6868 10.2422 -32.8226 
21498 3 -16.7978 10.2294 -32.6093 
19232 4 -18.7213 10.3067 -34.6794 
21497 4 -16.7434 8.46067 -34.5077 
19231 4 -18.7131 8.34385 -32.7293 
12 1 -49.429 -27.9098 -31.1112 
11 1 -49.6231 -29.5723 -29.2895 
2277 2 -47.556 -29.8074 -30.9758 
2278 3 -47.5964 -27.8566 -29.2861 
4545 3 -43.7034 -29.846 -31.0368 
2280 1 -45.6802 -27.9153 -31.0611 
4548 3 -41.7942 -27.8057 -30.9525 
6813 4 -40.0024 -29.8481 -31.097 
6816 4 -38.0183 -28.0109 -31.0435 
9084 4 -34.1172 -27.9863 -30.9876 
11352 4 -30.2195 -27.9693 -30.9893 
13620 3 -26.2806 -27.9071 -30.8416 
15888 3 -22.63 -27.9964 -30.8176 
18156 4 -18.7581 -28.105 -30.9307 
120 3 -49.4477 -24.041 -30.9431 
2385 1 -47.5829 -25.9612 -31.0978 
4653 2 -43.5798 -26.031 -31.118 
2388 3 -45.6799 -23.9706 -31.1218 
4654 2 -43.7425 -24.1432 -29.2643 
2387 3 -45.6199 -25.9624 -29.3423 
4656 2 -41.7945 -24.1189 -31.1917 
6921 2 -39.8648 -26.0365 -31.1671 
6924 4 -38.0346 -23.9764 -31.0679 
9189 3 -36.0125 -26.0584 -30.9617 
11457 1 -32.1829 -25.9507 -31.0653 
9192 4 -34.0837 -24.0902 -30.956 
11460 4 -30.2597 -24.2278 -31.0379 
13725 1 -28.3522 -26.0944 -30.8362 
13728 4 -26.3492 -24.2778 -30.7712 
15993 3 -24.5204 -26.1071 -30.802 
15996 4 -22.5727 -24.238 -30.8496 
18261 3 -20.8215 -26.2553 -30.8854 
20529 3 -16.6474 -26.1364 -30.8566 
18264 4 -18.7163 -24.3009 -30.7905 
227 1 -49.463 -22.068 -29.2577 
2493 4 -47.5392 -22.1278 -31.1476 
4761 4 -43.7561 -22.084 -31.1001 
2495 3 -45.5797 -22.0254 -29.2622 
7029 3 -39.9871 -22.1204 -31.2553 
9297 1 -35.9242 -22.0432 -31.0991 
11565 4 -32.2207 -22.2183 -31.0763 
13833 4 -28.2976 -22.1673 -30.9512 
16101 4 -24.5029 -22.2999 -30.9078 
18369 3 -20.6083 -22.1695 -30.8836 
20637 4 -16.767 -22.3807 -30.7828 
228 3 -49.4794 -20.1561 -31.1758 
333 4 -51.2285 -18.0475 -31.0782 
2601 2 -47.6405 -18.3052 -31.1206 
2496 3 -45.6998 -20.1977 -31.251 
4869 3 -43.8601 -18.3194 -31.2537 
4764 4 -41.9012 -20.1012 -31.0467 
7032 4 -38.0099 -20.264 -31.1314 
7137 4 -39.9123 -18.2794 -30.9871 
9405 4 -36.0111 -18.3574 -31.0871 
9300 3 -34.1643 -20.2128 -31.1836 
11673 4 -32.2033 -18.3323 -31.1135 
11568 3 -30.27 -20.4121 -31.1398 
13941 4 -28.3486 -18.4646 -31.0057 
13836 4 -26.3805 -20.3895 -31.0144 
16209 3 -24.4454 -18.4157 -30.8469 
16104 3 -22.6309 -20.3374 -30.8873 
18477 3 -20.6025 -18.4455 -30.8069 
20745 3 -16.6027 -18.6499 -30.7854 
18372 4 -18.59 -20.3945 -30.7746 
336 4 -49.49 -16.1765 -31.1621 
443 4 -49.529 -14.3597 -29.2942 
2602 3 -47.5418 -16.1386 -29.3106 
2604 3 -45.874 -16.2362 -30.9697 
4977 4 -43.8234 -14.3748 -31.0234 
4872 3 -41.9309 -16.4699 -31.1674 
7140 1 -37.8758 -16.3858 -31.0601 
7245 4 -39.8854 -14.5548 -31.0133 
7247 3 -37.9453 -14.4978 -29.2541 
9513 1 -36.1897 -14.4727 -30.9898 
9408 1 -34.1074 -16.3615 -31.0581 
11781 3 -32.2783 -14.577 -30.9524 
11676 3 -30.1963 -16.4079 -30.9274 
14049 1 -28.4091 -14.5617 -31.0717 
13944 1 -26.2529 -16.6557 -31.069 
16317 3 -24.5796 -14.7749 -30.8882 
16212 4 -22.5333 -16.4707 -30.8688 
18585 4 -20.6153 -14.7032 -30.99 
18480 4 -18.7156 -16.6337 -30.8108 
20853 4 -16.7908 -14.7374 -30.8233 
444 3 -49.645 -12.4863 -31.3038 
442 2 -51.4843 -12.2694 -29.3505 
2709 1 -47.6862 -14.2137 -31.0589 
2710 3 -47.6 -12.3721 -29.3289 
2712 1 -45.7045 -12.3957 -31.0502 
4980 4 -41.8965 -12.4914 -31.0472 
7248 3 -38.0128 -12.4833 -31.019 
7246 4 -39.9944 -12.5656 -29.2724 
9516 3 -34.1699 -12.5498 -30.9682 
11784 3 -30.2743 -12.7143 -31.0249 
14052 3 -26.5379 -12.7078 -31.0395 
16320 4 -22.5475 -12.872 -30.945 
18588 3 -18.8004 -12.8219 -30.8879 
549 2 -51.4703 -10.5811 -31.2922 
552 1 -49.582 -8.66995 -31.1715 
2817 4 -47.6687 -10.5759 -31.1385 
2818 4 -47.7514 -8.694 -29.2692 
2820 3 -45.6626 -8.51798 -31.0347 
5085 4 -43.7482 -10.4682 -31.0028 
5088 1 -41.7922 -8.73574 -31.112 
7353 3 -39.947 -10.6331 -31.0942 
7356 4 -37.9716 -8.79025 -31.0348 
7354 3 -39.9785 -8.745 -29.2731 
9621 1 -36.1017 -10.7199 -31.0759 
9624 4 -34.1498 -8.79878 -31.0045 
11889 1 -32.1593 -10.8095 -31.0863 
9623 4 -34.1827 -10.749 -29.2793 
11892 4 -30.1656 -8.87296 -31.0486 
14157 3 -28.3758 -10.7149 -30.866 
14160 4 -26.4765 -8.9562 -30.9615 
16425 4 -24.4534 -10.9268 -31.0461 
16428 2 -22.4806 -8.9705 -30.8912 
18693 3 -20.5304 -11.0152 -30.9348 
18696 1 -18.7321 -9.09846 -30.7616 
20961 4 -16.7383 -11.0015 -30.9165 
657 4 -51.3047 -6.65798 -31.1282 
2925 4 -47.6166 -6.6817 -31.1204 
5193 1 -43.8018 -6.78264 -31.0101 
7461 3 -39.9514 -6.86741 -31.1399 
9729 3 -36.0943 -6.84024 -31.1745 
11997 3 -32.1053 -6.89035 -31.0144 
12000 3 -30.1441 -5.08485 -31.0642 
14265 3 -28.326 -7.06891 -31.0225 
16533 4 -24.5084 -6.98505 -30.9567 
18801 4 -20.639 -7.00901 -30.8275 
21069 4 -16.7626 -7.05283 -30.7418 
18804 2 -18.6675 -5.05339 -30.781 
660 3 -49.4862 -4.59214 -31.2777 
765 2 -51.5804 -2.98451 -31.1674 
658 4 -51.3097 -4.85825 -29.3185 
3033 3 -47.5899 -2.77274 -31.1472 
2928 1 -45.6463 -4.78079 -31.1617 
5301 4 -43.7438 -3.01394 -31.1198 
5196 4 -41.8547 -4.88048 -31.072 
7464 4 -38.007 -4.96962 -31.0389 
7569 3 -39.9049 -3.03303 -31.0692 
7571 4 -37.983 -3.05319 -29.2636 
9837 3 -36.0265 -3.00547 -30.99 
9732 4 -34.1351 -4.99983 -31.0596 
12105 4 -32.1598 -3.15606 -31.1223 
11998 4 -32.0399 -4.97528 -29.2871 
9839 1 -34.0384 -3.03878 -29.307 
14373 4 -28.4165 -3.05753 -31.0307 
14268 3 -26.3179 -5.00842 -30.8034 
16536 3 -22.5934 -5.02886 -30.7943 
16641 4 -24.4641 -3.09698 -30.804 
18909 4 -20.662 -3.19295 -30.7456 
21177 1 -16.7312 -3.15909 -30.6833 
873 1 -51.2369 1.01105 -31.2849 
768 4 -49.5201 -1.10432 -31.1264 
3141 4 -47.5106 0.87381 -31.0931 
3036 4 -45.6117 -1.03922 -31.1142 
5409 3 -43.6502 0.790155 -30.9616 
5304 1 -41.7902 -1.11108 -31.1207 
7572 4 -37.8401 -1.0317 -31.1414 
7677 1 -39.8194 0.9023 -31.0639 
9945 1 -35.8875 0.777961 -31.042 
9840 3 -33.9779 -1.13556 -31.0249 
12213 3 -32.1227 0.71578 -30.9951 
12106 3 -32.2544 -1.15023 -29.2762 
12108 1 -30.2802 -1.14386 -31.0429 
14376 1 -26.3431 -1.16286 -31.0324 
14481 1 -28.3267 0.844642 -31.0379 
16749 1 -24.4359 0.833973 -30.8572 
16644 4 -22.5391 -1.28371 -30.8019 
19017 3 -20.516 0.745751 -30.7957 
18912 4 -18.6488 -1.26914 -30.726 
21285 4 -16.8323 0.64197 -30.7614 
876 1 -49.4745 2.86768 -31.108 
3144 3 -45.5267 2.77883 -31.0865 
5412 4 -41.6466 2.78711 -31.0698 
7680 1 -37.6975 2.79461 -30.9807 
9948 3 -34.1047 2.69262 -31.0411 
12216 1 -30.3049 2.58657 -30.9954 
14484 3 -26.3467 2.57565 -30.8523 
16752 3 -22.4857 2.74195 -30.7485 
19020 4 -18.6651 2.60586 -30.7299 
981 3 -51.1544 4.81189 -31.17 
984 3 -49.4954 6.62425 -31.1552 
982 3 -51.2297 6.59815 -29.2963 
3249 3 -47.6661 4.7784 -31.1016 
3252 3 -45.5513 6.58542 -31.1001 
5517 3 -43.5864 4.69016 -30.9702 
3251 1 -45.6704 4.69202 -29.3103 
5520 1 -41.7114 6.50598 -31.0192 
7785 4 -39.7362 4.61289 -31.0334 
7788 4 -37.9342 6.51995 -31.0912 
10053 4 -35.8167 4.50012 -31.0718 
12321 4 -32.0961 4.60869 -31.1752 
10056 3 -34.0975 6.54297 -31.1805 
12322 4 -32.0977 6.52252 -29.2898 
12324 3 -30.0112 6.38745 -31.0353 
14589 4 -28.28 4.52207 -30.8989 
14592 1 -26.295 6.33387 -30.8873 
16857 3 -24.3662 4.38692 -30.897 
16860 4 -22.5092 6.27162 -30.7993 
19125 3 -20.5151 4.43232 -30.8237 
21393 3 -16.8347 4.59112 -30.8313 
19128 3 -18.7428 6.39997 -30.8986 
1092 2 -49.5497 10.4702 -31.0625 
1089 4 -51.2707 8.4736 -31.2382 
3357 1 -47.5633 8.50659 -31.1751 
5625 4 -43.6038 8.60082 -31.1764 
3359 4 -45.6485 8.50311 -29.2628 
3360 4 -45.5381 10.4135 -31.1614 
7893 4 -39.8621 8.56819 -31.0434 
7896 4 -37.9521 10.4086 -31.0556 
10161 4 -36.0256 8.45467 -31.1638 
10164 3 -34.0672 10.3665 -31.1535 
12429 4 -32.0154 8.4225 -31.0801 
12432 3 -30.1848 10.3409 -30.9469 
14697 1 -28.288 8.39922 -30.9758 
14700 3 -26.4445 10.2567 -30.8678 
16968 3 -22.5138 10.1721 -30.7409 
16965 3 -24.4378 8.29001 -30.7352 
19233 3 -20.5784 8.3681 -30.7608 
21501 1 -16.9165 8.27233 -30.6423 
19236 1 -18.7038 10.1316 -30.7955 
16 3 -49.5191 -27.9097 -27.256 
2281 1 -47.7463 -29.7269 -27.4541 
2279 3 -45.6979 -29.7651 -29.2266 
2284 4 -45.6951 -28.0066 -27.4157 
4546 1 -43.7739 -27.9113 -29.2119 
4549 4 -43.7933 -29.8469 -27.371 
4552 4 -41.8217 -27.9877 -27.1919 
4547 1 -41.9349 -29.7186 -29.2323 
6814 1 -40.0391 -27.9755 -29.1052 
6820 4 -37.9534 -28.0423 -27.1438 
6815 4 -37.9235 -29.8087 -29.1781 
9082 3 -36.0733 -27.9901 -29.0342 
9085 1 -36.0243 -29.7906 -27.1337 
9088 4 -34.0473 -27.9925 -27.2372 
11350 4 -32.1697 -28.0372 -28.9722 
11356 3 -30.2624 -27.9262 -27.0109 
13621 1 -28.3859 -29.8331 -27.1011 
11351 3 -30.1643 -29.8194 -29.0786 
13618 3 -28.3508 -28.0193 -28.9952 
13624 3 -26.474 -28.1204 -27.0982 
15886 1 -24.5456 -27.9936 -28.9389 
15892 3 -22.4429 -28.0658 -27.0787 
18154 3 -20.7429 -27.9484 -28.8785 
18160 4 -18.7001 -28.0741 -27.0119 
20422 4 -16.7761 -28.0939 -29.08 
124 4 -49.5393 -24.0784 -27.3669 
119 4 -49.4354 -26.0072 -29.1327 
2389 4 -47.6171 -26.0776 -27.2597 
2386 4 -47.5316 -23.9964 -29.2171 
4657 3 -43.9398 -26.0397 -27.1977 
2392 4 -45.6353 -24.0176 -27.278 
4655 3 -41.8393 -26.1122 -29.1356 
4660 4 -41.9739 -24.1465 -27.2631 
6923 2 -38.1087 -26.1205 -29.1882 
6925 1 -40.0117 -25.9939 -27.1785 
6928 4 -37.9579 -24.1663 -27.1551 
6922 4 -40.0345 -23.9497 -29.2106 