ITEM: TIMESTEP
2000
ITEM: NUMBER OF ATOMS
81648
ITEM: BOX BOUNDS ff pp pp
-6.1168983129784692e+01 9.7168983130205959e+01
-3.5144181420438422e+01 5.6144181420438478e+01
-3.8341684971291798e+01 4.4708694353289097e+01
ITEM: ATOMS id type x y z 
539 4 -56.0508 -33.6334 -36.8741 
2701 3 -53.4666 -32.6416 -36.0255 
2596 4 -51.4848 -34.5874 -35.9505 
2807 4 -51.3628 -32.2998 -37.5538 
4966 3 -49.3977 -34.1006 -37.6982 
4864 4 -47.0339 -33.3102 -36.4805 
7234 4 -44.8799 -32.84 -38.1275 
7129 1 -44.8743 -35.0577 -36.5139 
7132 4 -43.2285 -32.9955 -36.0042 
9397 1 -41.2403 -34.8169 -36.0078 
9502 4 -41.1501 -32.5984 -37.5789 
7235 3 -42.7668 -34.7535 -38.213 
9503 2 -38.9952 -34.2346 -37.4997 
11665 4 -36.5584 -33.4992 -36.623 
13933 4 -32.4348 -32.6378 -36.6027 
13930 2 -32.4925 -34.8593 -38.2504 
13828 1 -30.3785 -34.4475 -36.713 
14039 4 -30.2812 -32.276 -38.1495 
16096 4 -26.3872 -34.0018 -36.3875 
16198 4 -28.2225 -33.854 -38.3367 
18466 3 -24.3358 -33.559 -38.1027 
18364 1 -21.93 -32.726 -37.0222 
18363 3 -21.907 -34.9461 -35.4312 
538 3 -58.0107 -31.6744 -36.7117 
436 4 -55.6392 -30.9718 -35.7625 
541 4 -57.5651 -29.2391 -35.5955 
645 3 -57.8534 -29.4962 -38.2102 
2806 3 -53.4595 -30.6739 -37.4823 
2704 4 -51.1858 -29.6858 -36.4152 
4969 1 -49.1412 -31.6391 -36.4546 
4972 4 -47.2907 -29.409 -35.9215 
5074 4 -49.1098 -29.4572 -37.9747 
5075 3 -47.0589 -31.1268 -38.1522 
7237 4 -45.3234 -31.2313 -35.9901 
7343 4 -43.2117 -30.8465 -37.5662 
9505 3 -40.8729 -29.9462 -36.5336 
9400 1 -38.7497 -31.5903 -36.5929 
9611 4 -38.7014 -29.3916 -38.3142 
11773 3 -37.0181 -29.603 -36.3074 
11770 1 -36.6847 -31.1962 -38.3203 
11668 4 -34.6583 -30.9762 -36.4697 
14038 4 -32.579 -30.761 -38.2497 
13936 4 -30.8026 -30.5078 -36.0561 
16201 3 -28.4819 -32.103 -36.1589 
16307 3 -26.5478 -31.7323 -37.7248 
16306 3 -28.609 -30.0872 -37.6675 
16204 3 -26.2307 -29.4098 -36.6145 
18469 4 -24.0768 -31.1182 -36.7788 
18471 4 -21.7034 -30.3496 -35.7056 
647 4 -55.5313 -28.7933 -37.2165 
646 3 -57.6599 -27.1625 -37.1578 
544 4 -55.4586 -26.3029 -36.1514 
2809 3 -53.2677 -28.1091 -36.2352 
2915 3 -51.2238 -27.5176 -37.8617 
5077 3 -49.4178 -27.6124 -35.8692 
5183 4 -47.3093 -27.2936 -37.5109 
7342 4 -45.287 -29.0467 -37.5619 
7345 3 -44.8423 -26.4766 -36.5335 
7240 3 -43.0196 -28.2988 -36.6705 
9610 4 -40.8925 -27.7996 -38.226 
7451 1 -42.8003 -26.1361 -38.127 
9508 3 -39.0241 -27.7346 -36.1776 
11878 2 -36.925 -27.3372 -37.7507 
11776 3 -35.0324 -27.1182 -35.8362 
11879 4 -34.8003 -28.9037 -37.9551 
14041 2 -32.936 -28.8021 -35.9348 
14146 4 -32.9243 -26.7199 -37.4739 
14147 1 -30.7321 -28.375 -37.5743 
16309 3 -28.4582 -27.5871 -36.4588 
16415 1 -26.38 -27.2698 -38.0556 
16311 4 -26.1359 -26.9129 -35.474 
18574 4 -24.1799 -29.0541 -38.3144 
18577 4 -23.9813 -26.6338 -37.0136 
18470 3 -23.8048 -28.6501 -35.5076 
18472 3 -21.7124 -28.2477 -37.2659 
649 4 -57.5348 -24.4589 -36.0456 
755 3 -55.6006 -23.9259 -37.7049 
2914 4 -53.3863 -25.8345 -37.7996 
2917 4 -53.9084 -24.1881 -35.7417 
2812 4 -51.6005 -25.9081 -35.7185 
3023 4 -51.6737 -23.7128 -37.3505 
5182 4 -49.3158 -25.4993 -37.5219 
5080 3 -46.9855 -24.6256 -36.4439 
7450 1 -44.9301 -24.2483 -38.0049 
7348 4 -43.1427 -24.1719 -36.0506 
9613 3 -41.17 -26.0425 -36.1197 
9718 4 -41.1702 -23.9246 -37.8003 
9719 1 -39.095 -25.6479 -37.7169 
9616 4 -39.2903 -23.9579 -35.6169 
11881 3 -37.1326 -25.6538 -35.8292 
11986 4 -37.2229 -23.5251 -37.3085 
11987 3 -35.0794 -25.1519 -37.2615 
14149 3 -32.8238 -24.1611 -36.3426 
14255 1 -30.6828 -23.7462 -38.0024 
14044 4 -30.6219 -25.9161 -36.4567 
16414 4 -28.5165 -25.4676 -38.077 
16312 3 -26.1567 -24.7905 -37.1327 
18580 1 -22.2933 -24.3263 -36.597 
754 1 -57.7074 -22.3264 -37.6057 
652 1 -55.9401 -22.2797 -35.6335 
757 3 -57.9766 -20.5939 -35.5203 
863 1 -56.0219 -20.0915 -37.2799 
3022 3 -53.9018 -21.8821 -37.356 
2920 3 -51.3968 -21.1161 -36.283 
5290 4 -49.22 -20.7275 -38.008 
5185 4 -49.2979 -22.8847 -36.4241 
5291 1 -47.0732 -22.5283 -38.0215 
5188 4 -47.6538 -20.8164 -35.8665 
7453 4 -45.3239 -22.5325 -35.9125 
7558 2 -45.4803 -20.425 -37.557 
7559 1 -43.2613 -22.0849 -37.5773 
9721 4 -41.459 -22.0535 -35.6654 
9827 1 -39.2744 -21.7525 -37.1444 
11989 4 -36.9165 -20.9249 -36.1528 
12095 4 -34.8803 -20.5008 -37.7829 
11884 3 -34.6746 -22.6143 -36.1602 
14254 3 -32.7613 -22.157 -37.823 
14152 3 -30.4798 -21.2363 -36.7799 
16417 4 -28.3244 -22.9441 -36.9682 
16420 4 -26.5134 -20.861 -36.521 
18790 3 -24.2874 -20.4285 -37.9381 
18685 4 -24.3466 -22.6077 -36.4694 
18791 4 -22.2482 -22.1799 -38.1514 
18687 3 -22.0075 -21.8294 -35.5179 
862 3 -57.8873 -18.3019 -36.9319 
760 3 -55.6799 -17.6419 -36.0844 
3025 4 -53.495 -19.3748 -36.2742 
3130 4 -53.464 -17.2699 -37.7478 
3131 4 -51.2648 -19.0093 -37.8188 
3028 3 -51.8622 -17.2102 -35.7508 
5293 4 -49.6618 -18.9798 -35.8796 
5399 4 -47.5384 -18.6592 -37.501 
7667 4 -43.7491 -18.1779 -37.0403 
9826 3 -41.6162 -19.8258 -37.0391 
9829 1 -41.3892 -17.4481 -35.9592 
9724 4 -39.2136 -19.1375 -36.0746 
9935 1 -39.1851 -17.0465 -37.5808 
12094 4 -36.9657 -18.8261 -37.6831 
11992 3 -34.5538 -18.0087 -36.4765 
14257 3 -32.5038 -19.6157 -36.6699 
14260 4 -30.8924 -17.4972 -36.1089 
16525 4 -28.7254 -19.2509 -36.3252 
16631 3 -26.5882 -18.5454 -38.0037 
16630 4 -28.7439 -17.0526 -37.9406 
18793 1 -24.2141 -17.9776 -36.8796 
18686 3 -24.1228 -20.0201 -35.4575 
18688 1 -22.0996 -19.7008 -36.8958 
21061 1 -20.4276 -17.544 -36.3904 
865 4 -57.7325 -15.9974 -35.8843 
971 1 -55.6457 -15.5116 -37.5584 
3133 3 -53.9183 -15.5065 -35.5578 
5398 4 -49.7589 -16.9028 -37.3969 
3239 4 -51.777 -15.1744 -37.2713 
5507 3 -47.9394 -14.8421 -36.9653 
5296 1 -47.8614 -16.9487 -35.4445 
7666 4 -45.8755 -16.6032 -36.9082 
7669 3 -45.5076 -14.0125 -35.8182 
7564 3 -43.3395 -15.7125 -36.0512 
9934 3 -41.3647 -15.385 -37.4773 
9832 3 -38.9969 -14.5939 -36.5098 
12097 1 -36.7211 -16.327 -36.5534 
12100 4 -34.9939 -14.1227 -36.1551 
12202 2 -36.9357 -14.1435 -38.1237 
14365 4 -32.8306 -15.7965 -36.1575 
12203 4 -34.6556 -15.8744 -38.2215 
14471 4 -30.7964 -15.3002 -37.7879 
16633 1 -28.3633 -14.5761 -36.7409 
16528 3 -26.2478 -16.2158 -36.855 
18901 1 -24.5966 -14.0761 -36.3059 
18796 4 -22.4597 -15.7246 -36.3447 
21166 1 -20.325 -15.1721 -37.9069 
970 3 -57.4625 -13.6574 -37.4643 
1079 3 -55.8557 -11.6643 -37.1098 
868 1 -55.9449 -13.7579 -35.5335 
973 4 -57.939 -11.8009 -35.616 
3238 4 -53.914 -13.2948 -37.1637 
3347 1 -52.0293 -11.2872 -36.6972 
5506 3 -50.0068 -12.993 -36.7148 
5404 1 -47.7218 -12.3245 -35.7001 
5508 3 -47.8617 -12.7224 -38.2332 
7774 1 -45.5754 -12.0203 -37.3801 
7775 3 -43.4152 -13.6438 -37.4509 
9937 3 -41.1018 -12.8077 -36.4197 
7672 4 -43.1396 -11.1124 -36.3114 
10043 2 -39.0338 -12.3897 -37.9638 
12205 4 -37.2279 -12.3791 -35.9717 
12311 4 -35.0219 -11.9221 -37.5775 
14470 3 -32.9534 -13.5511 -37.6893 
14473 2 -32.6166 -11.0568 -36.4894 
14368 1 -30.5872 -12.7487 -36.6389 
16636 3 -26.8054 -12.4338 -36.2419 
16738 1 -28.4915 -12.3111 -38.2665 
19006 4 -24.5595 -11.9486 -37.8064 
19007 1 -22.475 -13.5873 -37.9237 
18904 3 -22.9206 -12.0517 -35.8553 
21169 3 -20.8099 -13.6437 -35.815 
21274 4 -20.7628 -11.5302 -37.4102 
1078 4 -58.13 -9.13327 -37.1464 
3346 2 -54.1567 -9.69537 -36.6187 
5613 3 -49.9395 -10.9117 -38.1508 
5509 3 -49.7508 -10.6346 -35.6482 
3244 3 -51.7048 -8.89616 -35.5457 
5614 4 -49.6661 -8.51419 -37.0862 
3348 3 -52.1445 -9.14389 -38.082 
5615 3 -47.5765 -10.3134 -37.3033 
7777 4 -45.3495 -9.43845 -36.3026 
7883 1 -43.0881 -9.03989 -37.8538 
10042 3 -41.0663 -10.761 -37.9557 
10045 1 -41.2517 -8.98625 -35.8992 
9940 3 -39.3116 -10.7776 -35.9353 
10151 4 -39.2887 -8.57261 -37.5307 
12310 3 -37.2061 -10.2346 -37.5861 
12208 4 -34.7955 -9.44101 -36.4402 
14578 1 -32.7771 -8.89805 -38.1951 
14476 1 -30.9756 -8.98002 -36.1722 
14579 3 -30.5375 -10.5487 -38.2729 
16741 4 -28.8246 -10.6348 -36.1947 
16846 4 -28.8426 -8.42738 -37.6635 
16847 3 -26.8747 -10.2376 -37.7622 
16744 4 -27.0342 -8.48042 -35.6972 
19009 4 -25.023 -10.2569 -35.806 
19114 1 -24.963 -8.00489 -37.3193 
19115 1 -22.8824 -9.88458 -37.4671 
21277 4 -20.5305 -9.05005 -36.3524 
1186 1 -58.3035 -6.41172 -36.6004 
1187 3 -56.0765 -7.83168 -36.55 
1188 1 -56.2736 -5.83169 -38.1816 
3453 2 -54.169 -7.50491 -38.1605 
3454 3 -54.0415 -5.05682 -37.0812 
3349 4 -53.921 -7.06189 -35.4336 
3455 1 -51.8191 -6.76213 -37.0515 
5617 3 -49.4203 -6.1414 -35.9941 
5512 4 -47.2782 -7.68991 -36.145 
5723 3 -47.302 -5.4796 -37.6448 
7882 4 -45.2591 -7.28896 -37.8048 
7885 1 -45.6517 -5.46273 -35.6066 
7991 4 -43.5337 -5.08649 -37.2352 
7780 4 -43.6028 -7.25548 -35.7687 
10150 3 -41.2724 -6.93931 -37.4486 
10048 3 -38.9601 -6.00023 -36.5108 
12418 2 -36.8418 -5.62667 -37.976 
12313 4 -36.8145 -7.74925 -36.4706 
12316 4 -35.0598 -5.63219 -35.9538 
12419 3 -34.7487 -7.23761 -38.0924 
14581 3 -32.93 -7.3171 -36.0896 
14686 1 -33.0279 -5.29385 -37.6469 
14687 1 -30.8668 -6.79332 -37.6964 
16849 2 -29.2494 -6.80243 -35.5853 
14584 4 -31.4325 -5.18931 -35.4304 
16955 3 -27.1007 -6.29036 -37.2344 
19117 3 -24.8599 -5.64054 -36.2123 
21382 4 -20.5522 -6.7419 -37.8828 
19012 4 -22.5678 -7.28137 -36.2059 
19223 4 -22.6779 -5.10792 -37.8274 
1293 2 -58.4762 -3.99006 -38.0002 
1295 3 -56.1004 -3.28876 -36.9217 
3457 1 -53.703 -2.62435 -35.8102 
3352 4 -51.6177 -4.20687 -35.9392 
5722 4 -49.5137 -3.91697 -37.4657 
3563 3 -51.6573 -2.11214 -37.4491 
5725 3 -49.9873 -1.96133 -35.6002 
5620 4 -47.7457 -3.69752 -35.622 
7990 3 -45.4687 -3.31629 -37.0909 
7888 3 -43.1835 -2.56089 -36.1985 
10153 4 -41.0133 -4.29107 -36.3311 
10258 1 -41.1058 -2.22677 -37.9369 
10259 3 -38.9446 -3.98484 -38.0205 
10156 4 -39.2466 -2.17856 -35.9718 
12421 4 -37.2255 -3.84906 -35.9024 
12527 4 -35.1893 -3.39035 -37.5085 
14689 4 -33.5047 -3.35589 -35.5404 
14795 4 -31.2381 -3.02489 -37.009 
16954 3 -29.2055 -4.72997 -37.0709 
16957 4 -28.9789 -2.11713 -36.0847 
16852 3 -26.8505 -3.96147 -36.1577 
19222 4 -24.7191 -3.40206 -37.6747 
19120 3 -22.2759 -2.617 -36.7752 
1294 4 -58.1963 -1.42203 -36.6885 
1297 4 -58.1125 1.02246 -35.7699 
1192 3 -55.7245 -0.967179 -35.845 
3562 4 -53.7596 -0.401156 -37.3959 
5830 3 -49.8917 0.0942937 -36.8777 
3460 3 -52.1488 -0.447344 -35.4378 
5831 3 -47.8303 -1.58989 -37.0375 
5728 3 -47.5235 0.919165 -35.9692 
7993 3 -45.218 -0.907553 -35.9736 
8099 1 -43.3456 -0.492995 -37.7116 
10261 1 -41.5381 -0.534374 -35.7976 
10367 4 -39.3777 0.0951773 -37.4419 
12526 3 -37.1943 -1.55179 -37.4461 
12635 3 -35.6401 0.677448 -37.0895 
12424 3 -35.4488 -1.59848 -35.391 
12529 3 -37.5773 -0.0475926 -35.43 
14794 4 -33.5092 -1.24241 -36.9928 
14692 3 -31.0985 -0.315397 -35.8216 
17062 4 -28.9836 0.0680678 -37.6223 
17063 3 -26.7435 -1.68181 -37.6272 
16960 1 -26.4496 0.974191 -36.4457 
19225 4 -24.4824 -0.825409 -36.7239 
21493 1 -20.6828 -0.516075 -36.2005 
19331 4 -22.3703 -0.330401 -38.2698 
1402 1 -58.1425 3.25141 -37.1832 
1403 4 -55.9719 1.34197 -37.4054 
3670 4 -54.2016 3.5205 -36.7986 
3565 3 -54.1333 1.19937 -35.4236 
3671 1 -52.0551 1.73598 -36.8779 
5833 4 -49.6145 2.68664 -35.9194 
5939 1 -47.5466 3.02348 -37.5065 
8098 4 -45.397 1.2343 -37.6012 
8101 1 -45.8027 2.99897 -35.516 
7996 1 -43.6231 1.2089 -35.618 
8207 4 -43.5993 3.37756 -37.2036 
10366 4 -41.563 1.68481 -37.2648 
10475 1 -39.7719 3.89487 -36.8593 
12634 3 -37.5942 2.42388 -36.9983 
12532 3 -35.2781 3.04841 -35.908 
14797 3 -33.233 1.29174 -35.9009 
14902 3 -33.1216 3.27881 -37.4072 
14903 1 -31.1103 1.72932 -37.4745 
17065 2 -28.6149 2.62044 -36.4684 
17171 4 -26.4846 3.0893 -38.1595 
19333 3 -24.8569 3.05284 -36.1594 
19330 3 -24.504 1.36888 -38.0662 
19228 3 -22.7732 1.24539 -36.0743 
19439 4 -22.7575 3.38759 -37.7188 
21598 4 -20.55 1.65288 -37.8223 
1510 4 -58.4291 7.03092 -36.6714 
1511 3 -56.4033 5.33357 -36.7949 
3673 2 -53.9579 6.15723 -35.7291 
3777 4 -54.161 5.71886 -38.2988 
3568 4 -51.7154 4.38362 -35.8861 
3779 1 -51.7782 6.677 -37.41 
5938 1 -49.5997 4.9192 -37.4118 
5941 3 -49.9487 6.46797 -35.4112 
6047 4 -47.9119 7.04622 -37.0843 
5836 3 -47.8502 4.70645 -35.4301 
8206 4 -45.7503 5.23452 -37.0281 
10474 4 -41.9365 5.64033 -36.626 
10372 4 -39.5208 6.41338 -35.7211 
10476 4 -39.6928 6.15976 -38.3116 
12637 1 -37.2469 4.77738 -35.8406 
12743 4 -35.1685 5.107 -37.4665 
12742 3 -37.2613 6.88891 -37.348 
14905 4 -32.8444 5.85245 -36.4234 
14800 3 -30.7356 4.31339 -36.4933 
15011 4 -30.8602 6.46384 -38.102 
17173 4 -28.9892 6.37223 -35.9442 
17170 3 -28.6299 4.92536 -38.0442 
17068 1 -26.9337 4.83374 -36.0233 
17279 3 -26.8878 6.89103 -37.4851 
19438 1 -24.8514 5.19268 -37.6398 
19336 4 -22.4977 5.89279 -36.6105 
21601 2 -20.3337 4.17335 -36.5398 
21706 3 -20.412 6.37439 -38.0793 
1617 3 -58.2761 9.12821 -38.2224 
1512 1 -56.3939 7.42806 -38.3135 
1513 3 -58.2021 9.5808 -35.5163 
1408 4 -56.079 7.77462 -35.6139 
1619 4 -56.0507 9.9018 -37.223 
3778 1 -53.9678 8.46068 -37.2903 
6046 4 -49.9383 8.72631 -37.1323 
3676 3 -52.129 8.40199 -35.4816 
8314 3 -46.1178 9.1343 -36.6197 
8315 3 -43.9916 7.46427 -36.6549 
8316 1 -44.0934 9.66746 -38.0615 
8212 3 -43.7798 10.0106 -35.5252 
10477 4 -41.6716 8.18137 -35.5565 
10581 1 -41.9058 7.92875 -38.2327 
10583 3 -39.5728 8.74676 -37.3058 
12745 1 -37.1836 9.32394 -36.2962 
12640 1 -34.9918 7.75242 -36.2959 
12851 4 -34.9731 9.86007 -37.8841 
15010 1 -32.8923 8.2348 -38.0124 
15013 3 -33.2857 9.83643 -35.92 
14908 3 -31.27 8.05827 -35.7973 
17278 4 -29.1485 8.56234 -37.5501 
17176 1 -26.7433 9.34178 -36.3633 
19441 1 -24.626 7.64142 -36.426 
19546 4 -24.5311 9.79114 -38.1005 
19442 3 -24.3669 10.0324 -35.4568 
19547 3 -22.4992 8.02849 -38.1242 
19443 1 -22.3116 8.45708 -35.3911 
433 3 -58.0727 -33.7259 -35.345 
435 1 -55.8365 -33.3668 -34.2574 
2594 4 -53.5649 -34.8956 -34.3804 
2705 4 -53.3191 -32.5392 -33.2826 
2600 4 -51.1086 -34.1718 -33.1608 
4862 3 -49.074 -33.876 -34.9274 
4868 4 -47.5148 -33.9737 -32.7778 
7130 1 -45.1382 -33.4548 -34.2209 
7136 3 -42.9536 -32.6128 -33.3691 
9401 1 -40.9598 -34.5492 -33.2869 
9398 4 -40.9207 -32.2139 -35.0247 
9399 2 -38.6948 -33.8894 -34.8522 
11669 3 -36.4914 -33.6156 -33.4046 
11667 1 -34.5127 -33.1917 -35.0087 
13826 3 -32.4341 -34.8039 -35.2238 
13937 1 -32.7709 -33.1987 -32.9249 
13935 4 -30.6927 -32.6793 -34.6136 
13832 2 -30.6944 -34.9671 -33.2213 
16094 1 -28.6215 -34.4981 -34.9468 
16100 4 -26.2475 -33.7504 -33.8158 
18362 4 -23.9693 -33.2371 -35.3435 
18366 2 -23.9199 -32.8523 -32.6243 
18367 4 -21.7333 -34.6021 -32.7922 
18368 3 -21.7086 -32.5094 -34.3755 
434 4 -57.7214 -31.3091 -33.9479 
440 3 -55.3015 -30.5815 -32.8052 
2702 4 -53.3197 -30.2475 -34.7707 
4973 4 -49.492 -32.0351 -32.64 
2703 3 -51.1022 -32.0434 -34.8483 
2708 4 -51.6045 -30.3282 -32.7562 
4970 1 -49.498 -29.8939 -34.4491 
4971 4 -47.3463 -31.7391 -34.3296 
7241 3 -44.8554 -30.9271 -33.254 
7239 1 -42.8408 -30.3436 -34.8948 
9509 3 -41.1462 -30.2817 -32.9614 
9404 1 -38.9639 -31.664 -33.2597 
9507 3 -38.8546 -29.7308 -34.7799 
11777 4 -36.9101 -29.7904 -32.6187 
11666 2 -36.7622 -31.5694 -34.786 
11672 3 -34.9485 -31.8244 -32.9454 
11775 4 -34.9859 -29.3766 -34.2973 
13934 4 -32.8424 -30.9438 -34.3564 
13940 4 -30.3924 -30.16 -33.4513 
16205 1 -28.4024 -31.9044 -33.4883 
16202 3 -28.286 -29.7372 -35.0503 
16203 1 -26.1887 -31.4891 -35.1535 
16207 2 -25.9864 -31.2403 -32.4576 
18473 3 -23.8664 -30.7162 -34.1702 
16208 4 -25.9558 -29.1063 -34.0048 
545 1 -57.5993 -28.645 -32.939 
542 4 -57.4661 -26.5736 -34.6334 
543 1 -55.3575 -28.4826 -34.441 
548 3 -56.0326 -26.567 -32.5049 
2813 1 -53.6545 -28.59 -32.5529 
2810 4 -53.7841 -26.3609 -34.132 
2811 3 -51.5516 -28.1457 -34.2452 
4976 4 -46.9773 -29.0973 -33.3233 
5081 4 -49.1569 -27.3514 -33.2776 
5079 2 -46.8881 -26.8324 -34.9289 
7238 3 -44.9235 -28.7188 -35.0073 
7349 2 -45.313 -26.8712 -32.7741 
7347 4 -43.228 -26.4342 -34.6885 
7244 4 -43.1531 -28.6531 -32.8507 
9506 4 -41.1974 -28.1711 -34.6447 
9617 4 -41.5449 -26.5157 -32.437 
9512 4 -39.3063 -28.2213 -32.6464 
11774 4 -37.0186 -27.6951 -34.2244 
11780 4 -34.6403 -26.8003 -33.1787 
14045 3 -32.4949 -28.5335 -33.2917 
14042 4 -32.656 -26.2891 -34.8737 
14043 1 -30.4036 -28.0298 -34.8503 
16313 4 -28.1217 -27.4048 -33.7865 
18581 4 -24.2896 -26.9165 -33.5473 
18476 1 -22.1658 -28.6581 -33.4712 
18579 1 -22.207 -26.4116 -35.0741 
651 3 -55.9823 -24.3537 -34.0228 
653 3 -57.7629 -24.8057 -32.562 
2921 4 -53.4739 -23.7525 -33.1765 
2816 4 -51.3065 -25.5628 -33.2319 
2919 4 -51.3709 -23.3991 -34.7615 
5189 4 -49.5621 -23.3715 -32.7602 
5078 1 -49.1469 -25.1715 -34.8827 
5084 1 -47.5018 -25.1662 -32.8088 
7346 1 -45.3511 -24.6771 -34.3706 
9614 2 -41.5179 -24.3287 -34.061 
9615 4 -39.2918 -26.0761 -34.0982 
9620 4 -39.0613 -23.4177 -32.9829 
11885 1 -36.88 -25.3309 -33.1504 
11883 3 -34.8229 -24.6572 -34.8104 
14153 1 -32.469 -23.8794 -33.7959 
14151 4 -30.3954 -23.4104 -35.3317 
14048 3 -30.2987 -25.5499 -33.6355 
16310 1 -28.2902 -25.1717 -35.278 
16421 4 -28.5185 -23.421 -33.1661 
16316 3 -26.4366 -25.2297 -33.2417 
16419 2 -26.5002 -23.1404 -34.8419 
18578 4 -24.2472 -24.7772 -35.0363 
18584 3 -21.9879 -23.99 -33.9196 
18583 1 -21.9151 -26.047 -32.4507 
650 3 -57.7784 -22.5886 -33.9774 
656 3 -55.5657 -21.959 -33.0709 
761 3 -57.4725 -20.2538 -32.8731 
2918 4 -53.4082 -21.488 -34.7138 
2924 1 -51.7185 -21.7014 -32.6056 
5186 3 -49.6019 -21.2424 -34.205 
5187 4 -47.4165 -22.9224 -34.4139 
7456 4 -43.7516 -20.3686 -35.35 
7454 3 -45.8186 -20.8254 -33.7794 
7455 4 -43.7463 -22.5306 -33.8021 
9725 4 -41.2742 -21.8398 -32.8518 
9723 1 -39.0061 -21.2278 -34.4713 
11882 4 -36.9294 -23.0475 -34.6541 
11993 3 -36.6893 -20.5374 -33.4271 
11888 3 -34.5772 -22.2027 -33.5814 
14150 1 -32.4734 -21.6757 -35.1996 
14261 3 -32.9078 -20.107 -33.1256 
11991 1 -34.6071 -20.1334 -35.1057 
14156 3 -30.8114 -21.6944 -33.1549 
16418 4 -28.5797 -21.3912 -34.8048 
16424 1 -26.1514 -20.6079 -33.7636 
18689 3 -24.1296 -22.2504 -33.9417 
18692 4 -22.4479 -20.1701 -33.4895 
758 3 -57.7948 -18.2655 -34.3303 
759 2 -55.6535 -19.6988 -34.5745 
764 3 -55.8614 -18.1291 -32.6159 
3026 3 -53.8786 -17.629 -34.1023 
3029 4 -53.9317 -19.9298 -32.5708 
3027 4 -51.8031 -19.4728 -34.113 
5294 2 -50.0263 -17.4378 -33.7248 
5295 1 -47.8947 -19.1614 -33.6742 
7561 3 -45.9669 -18.7834 -35.3401 
7565 4 -45.5394 -18.3565 -32.7056 
7460 1 -43.4649 -20.0406 -32.6842 
7563 4 -43.4275 -17.8414 -34.3024 
9722 1 -41.2754 -19.5783 -34.319 
9728 1 -38.8132 -18.7353 -33.3216 
11990 4 -36.7074 -18.4469 -34.8845 
11996 3 -35.0374 -18.5111 -32.9769 
14258 3 -32.9288 -18.0699 -34.5304 
14259 1 -30.7806 -19.6617 -34.7113 
14264 4 -30.5561 -17.1385 -33.4774 
16527 4 -26.2676 -18.4016 -35.2708 
16529 1 -28.314 -18.8222 -33.6301 
18797 4 -24.5029 -18.2929 -33.1544 
18795 3 -22.5318 -17.9636 -34.8935 
21065 1 -20.8556 -18.1212 -32.92 
20954 3 -20.3654 -19.7494 -34.9226 
867 4 -55.9866 -15.897 -33.9628 
866 3 -57.949 -14.0307 -33.8951 
5401 3 -49.8991 -15.2323 -35.3233 
3135 2 -52.0459 -15.7628 -33.694 
5405 4 -49.6124 -14.9098 -32.5253 
5300 4 -47.5657 -16.696 -32.6095 
5403 4 -47.5496 -14.4143 -34.1698 
7562 4 -45.5529 -16.2502 -34.3494 
9833 2 -41.0412 -17.0029 -33.2477 
7568 3 -43.134 -15.2267 -33.2228 
9830 1 -41.0846 -14.8776 -35.0101 
9831 4 -38.9323 -16.6905 -34.9274 
9836 4 -39.2668 -14.9196 -32.8137 
12098 4 -37.096 -14.5813 -34.5042 
12101 3 -37.0668 -16.7066 -32.9938 
12099 1 -35.0025 -16.3359 -34.4138 
14369 3 -32.7157 -15.4467 -33.5058 
14367 2 -30.4781 -14.8638 -35.0877 
16526 4 -28.3955 -16.6522 -35.1106 
16637 4 -28.7926 -15.0043 -32.9904 
16532 1 -26.6565 -16.624 -33.125 
16635 3 -26.7994 -14.4425 -34.5881 
18905 1 -25.0237 -14.5905 -32.6018 
18794 4 -24.6683 -16.2509 -34.7984 
18800 1 -22.7965 -16.2793 -32.7644 
18903 3 -22.9641 -14.1001 -34.2945 
21062 4 -20.7357 -15.8193 -34.2761 
975 4 -56.2872 -12.05 -33.4274 
3134 4 -54.2082 -13.9005 -33.4723 
3241 3 -54.1098 -11.6827 -35.0624 
3136 1 -52.0283 -13.5476 -35.2348 
5402 4 -49.7226 -12.7148 -34.0775 
3140 4 -51.7984 -13.1537 -32.5076 
5408 3 -47.2467 -11.9261 -33.0994 
7673 3 -45.114 -13.5965 -33.0317 
7670 2 -45.2866 -11.6423 -34.698 
7676 3 -43.4739 -11.5923 -32.5023 
7671 4 -43.1648 -13.2569 -34.8231 
9941 1 -41.4013 -13.1929 -32.6943 
9938 3 -41.4286 -11.1721 -34.2906 
9939 4 -39.3 -12.8719 -34.475 
12209 2 -36.8462 -12.038 -33.2723 
12104 1 -34.7244 -13.7844 -33.4496 
12207 3 -34.659 -11.6043 -34.8192 
14366 1 -32.6262 -13.2994 -34.9878 
14477 1 -32.9753 -11.5118 -32.9236 
14372 3 -30.9053 -13.2371 -33.0489 
14475 3 -30.7623 -11.051 -34.5131 
16745 3 -29.1691 -11.1958 -32.5443 
16634 1 -28.8126 -12.7419 -34.6489 
16640 1 -27.1469 -12.9602 -32.5219 
18902 4 -25.0115 -12.3975 -34.1945 
18908 1 -22.6193 -11.6504 -33.2372 
21173 4 -20.3982 -13.3547 -33.2125 
21170 3 -20.5785 -11.1791 -34.7042 
1081 1 -58.7659 -8.28229 -34.6714 
974 4 -58.2975 -10.3682 -33.2208 
976 4 -56.3724 -9.86908 -34.9898 
3242 4 -53.858 -9.23038 -33.9194 
3243 1 -51.7413 -10.9749 -34.0177 
3248 4 -51.5162 -8.4664 -32.849 
5513 3 -49.4066 -10.3537 -32.9727 
5510 1 -49.3494 -8.28925 -34.4812 
5511 3 -47.3477 -9.90087 -34.5646 
7781 4 -45.6045 -9.84847 -32.5812 
7779 4 -43.5192 -9.4344 -34.1764 
10049 4 -41.0945 -8.58258 -33.1683 
9944 4 -39.1035 -10.2566 -33.2958 
10047 3 -39.0325 -8.0701 -34.8776 
12317 3 -37.2838 -8.27927 -32.778 
12206 4 -36.9631 -9.82807 -34.883 
12212 3 -35.1356 -9.86107 -32.7841 
14474 4 -33.0471 -9.37633 -34.47 
16742 4 -29.2134 -8.94847 -34.028 
14480 3 -31.2072 -9.37616 -32.478 
16743 1 -27.1288 -10.8072 -34.1111 
16748 4 -26.9082 -8.1202 -32.9101 
19013 4 -24.692 -9.95784 -33.0163 
19011 4 -22.6848 -9.5355 -34.7509 
1084 4 -56.0692 -5.46433 -35.3401 
1082 3 -58.1845 -5.85393 -33.7653 
1083 4 -56.0839 -7.48464 -33.8014 
1088 4 -55.8743 -5.15968 -32.6965 
3353 3 -53.6172 -6.71851 -32.8199 
3351 1 -51.5592 -6.48349 -34.4313 
5619 1 -47.7368 -6.02559 -34.0074 
7778 3 -45.6942 -7.67678 -34.1365 
7889 3 -45.3188 -5.08808 -33.1135 
7784 1 -43.2718 -6.86053 -33.14 
10046 4 -41.1397 -6.37302 -34.8367 
10052 1 -39.3765 -6.54809 -32.7786 
12314 1 -37.3329 -6.18215 -34.342 
12315 3 -35.2065 -7.81346 -34.3405 
14582 3 -33.5249 -5.80205 -33.9595 
14583 3 -31.392 -7.33864 -34.0743 
16853 3 -28.9854 -6.52775 -32.9322 
16851 3 -26.7588 -6.01675 -34.5709 
19010 1 -24.7751 -7.70162 -34.5799 
19121 1 -24.4993 -5.10049 -33.4805 
19016 4 -22.3047 -6.985 -33.5328 
1189 4 -58.2329 -3.79151 -35.3552 
1193 1 -58.1904 -3.41901 -32.6929 
1191 1 -55.9376 -2.98448 -34.2817 
3350 3 -53.6936 -4.67318 -34.2968 
3459 4 -51.9387 -2.61214 -33.8595 
5618 4 -49.8379 -4.3355 -34.0178 
5624 4 -47.4703 -3.44398 -32.9764 
7886 3 -45.124 -2.87094 -34.575 
7892 3 -43.5579 -2.93606 -32.6325 
7887 1 -43.2633 -4.64845 -34.6727 
10154 4 -41.4527 -2.67764 -34.2131 
10157 4 -41.4199 -4.85276 -32.6671 
10155 4 -39.3736 -4.25311 -34.3432 
12422 3 -37.5513 -2.0347 -33.8144 
12423 4 -35.6134 -3.84178 -33.8853 
14693 4 -33.1749 -3.13333 -32.8296 
14691 3 -31.0943 -2.43353 -34.3404 
14588 4 -31.093 -4.78417 -32.9347 
16850 4 -28.9567 -4.26104 -34.5053 
16856 1 -26.5138 -3.55115 -33.5091 
19118 3 -24.4361 -3.03019 -35.158 
19119 4 -22.3286 -4.6992 -35.0882 
19124 4 -22.7483 -2.98945 -33.0157 
21389 4 -20.7409 -4.80738 -33.0271 
21386 3 -20.5569 -2.63794 -34.6984 
1190 3 -58.0476 -1.24694 -34.1694 
1299 1 -56.3043 0.658261 -33.8625 
3458 1 -54.1281 -0.811042 -33.8145 
3464 3 -51.7313 -0.0616737 -32.8091 
5726 4 -49.7042 0.543682 -34.3587 
5729 4 -49.5917 -1.80087 -32.9766 
5727 4 -47.3923 -1.28293 -34.4444 
7994 1 -45.6696 0.838236 -34.0624 
7995 3 -43.625 -0.911062 -34.06 
10263 2 -39.7429 -0.575698 -33.7126 
12533 4 -37.3401 0.330152 -32.7126 
12428 3 -35.2942 -1.28547 -32.8237 
12531 4 -35.2411 0.804151 -34.3739 
14690 1 -33.1654 -0.885528 -34.3443 
14696 3 -30.7799 -4.25371e-05 -33.3741 
16961 4 -28.6385 -1.7412 -33.3835 
16958 3 -28.7176 0.419521 -34.9956 
16959 4 -26.5814 -1.27743 -34.9834 
16964 3 -26.9915 0.349369 -32.9346 
19226 4 -24.7958 0.856433 -34.4769 
19229 4 -24.8151 -1.45643 -32.8924 
19227 3 -22.7701 -0.993237 -34.6926 
21497 4 -20.3962 -0.124749 -33.4933 
1298 4 -58.2386 2.57071 -33.4932 
1300 4 -56.2649 3.0721 -35.1422 
3566 1 -53.8335 4.06451 -34.0775 
3569 4 -53.8961 1.74959 -32.7556 
3567 4 -51.7945 2.17446 -34.3119 
5835 1 -47.7636 2.55944 -33.9856 
8103 1 -44.0561 2.85613 -33.5447 
10262 4 -41.8585 1.23535 -33.5787 
10369 4 -41.7987 3.41099 -35.1317 
10373 4 -41.6127 3.89398 -32.461 
10264 4 -39.6929 1.65868 -35.3745 
10268 4 -39.4405 2.09571 -32.5215 
12530 3 -37.3419 2.619 -34.2892 
12536 4 -35.0923 3.41322 -33.2917 
14801 4 -32.9733 1.69297 -33.2703 
14798 3 -32.8213 3.82193 -34.8176 
14804 3 -31.0584 3.77465 -32.8826 
14799 4 -30.7778 2.13231 -34.8664 
17069 3 -29.082 1.99574 -32.8705 
17067 3 -26.9573 2.59861 -34.4563 
19337 1 -24.5712 3.3177 -33.5047 
21494 3 -20.3211 2.07841 -35.0034 
19232 4 -22.4275 1.5642 -33.3046 
19335 3 -22.4305 3.71667 -34.944 
1405 3 -58.1203 4.88245 -35.1215 
1407 3 -56.0373 5.63673 -33.984 
1409 3 -57.8906 5.14805 -32.4505 
3675 4 -52.122 6.05236 -33.7203 
5834 3 -49.8985 4.31035 -33.9219 
5943 4 -48.2412 6.51096 -33.36 
8102 4 -46.0477 4.7673 -33.4526 
8104 4 -44.036 5.21483 -35.0505 
8209 2 -46.2483 6.97021 -35.078 
10370 4 -41.6263 6.03217 -34.0267 
10371 1 -39.4694 4.22107 -34.196 
10376 1 -39.2181 6.79809 -33.025 
12641 4 -37.0681 5.17149 -33.1299 
12639 1 -34.932 5.57393 -34.8629 
12644 3 -35.302 7.11919 -32.6535 
12638 3 -37.0848 7.11461 -34.7148 
14909 4 -33.2268 5.49222 -32.7293 
14907 1 -31.0936 5.85399 -34.3901 
17066 3 -28.9801 4.21586 -34.4677 
17177 4 -28.6644 6.80402 -33.2652 
17072 4 -26.7026 5.03302 -33.432 
19334 3 -24.578 5.43817 -35.0359 
19338 1 -24.2862 5.92667 -32.4584 
19340 3 -22.0292 6.21814 -33.995 
1406 4 -57.9996 7.31441 -34.0437 
1515 4 -56.3803 9.44497 -33.5695 
3674 3 -54.1485 7.83293 -33.7501 
3781 3 -54.1618 9.95652 -35.1596 
3783 4 -52.3678 9.80651 -33.2426 
5942 4 -50.3332 8.157 -33.2961 
5944 2 -48.2519 8.68734 -34.9335 
8210 3 -45.8588 9.40853 -34.0572 
8211 1 -43.8343 7.77949 -34.0899 
10481 1 -41.4031 8.71954 -32.8284 
10479 4 -39.2828 8.96106 -34.6013 
12747 4 -35.3878 9.32673 -34.2481 
12749 4 -37.4777 8.84506 -32.548 
14906 3 -33.197 7.51279 -34.3212 
15017 4 -33.0125 10.1415 -33.2426 
14912 3 -30.8654 8.3969 -33.2881 
17175 3 -26.5951 7.23556 -34.8818 
17174 3 -28.8149 8.82209 -34.9496 
17180 3 -26.4246 9.70841 -33.8578 
19445 3 -24.3121 8.07864 -33.8047 
21713 4 -20.5119 8.44977 -33.4195 
437 4 -57.9837 -33.4117 -32.3919 
439 4 -55.4303 -32.9068 -31.5606 
336 4 -55.5167 -35.0005 -29.8514 
2598 4 -53.3947 -34.5343 -31.6227 
2707 4 -51.647 -32.3682 -31.0659 
4866 4 -49.5678 -34.3039 -30.9968 
4872 3 -47.0093 -33.399 -30.1182 
7134 3 -45.0069 -33.1945 -31.6845 
7140 1 -42.9625 -32.8052 -30.1773 
7135 3 -43.0999 -35.0368 -31.666 
9405 4 -40.8575 -34.4876 -30.3662 
9402 1 -40.9304 -32.3869 -31.654 
9403 1 -38.8274 -34.0175 -32.0584 
9408 1 -39.1928 -32.3477 -29.6189 
11673 4 -37.1617 -34.1892 -29.856 
11671 3 -34.7896 -33.6801 -31.3691 
13941 4 -32.5291 -32.7985 -30.281 
13836 4 -30.448 -34.606 -30.5473 
13939 3 -30.4576 -32.3718 -31.9067 
16098 4 -28.3374 -34.0332 -32.104 
16104 3 -25.9893 -33.3162 -31.0441 
18369 3 -23.8486 -34.9745 -31.0883 
18372 4 -22.0798 -33.0122 -30.5092 
438 4 -57.4387 -30.9505 -31.5397 
2706 3 -53.8031 -30.7498 -30.8433 
2712 1 -51.3069 -29.926 -29.9487 
4977 4 -49.2531 -31.6621 -29.9598 
4974 4 -49.1672 -29.5387 -31.649 
4975 1 -46.9388 -31.3532 -31.7807 
4980 4 -47.4622 -29.5496 -29.6153 
7245 4 -45.0886 -31.1884 -29.8053 
7242 4 -45.3608 -29.1081 -31.284 
7243 3 -43.006 -30.6356 -31.421 
9511 4 -39.1661 -30.2186 -31.0653 
11670 4 -37.082 -31.9895 -31.2556 
11781 3 -36.7238 -29.456 -30.1078 
11676 3 -34.8157 -31.2335 -30.434 
13938 4 -32.6078 -30.609 -31.7981 
13944 1 -30.1069 -30.0228 -30.839 
16209 3 -28.0662 -31.5917 -30.8874 
16206 3 -28.0888 -29.5788 -32.315 
16212 4 -26.3962 -29.511 -30.2655 
18477 3 -24.1348 -31.2256 -30.3288 
18474 4 -24.3007 -29.1561 -31.9339 
18475 4 -22.0778 -30.8454 -32.1099 
547 4 -55.8527 -28.807 -30.973 
546 3 -57.808 -27.0043 -30.9613 
552 1 -55.6269 -26.469 -29.8028 
2817 4 -53.4359 -28.1983 -29.9186 
2815 3 -51.3101 -27.7303 -31.5212 
5085 4 -49.6017 -27.7158 -29.6394 
5083 1 -47.4597 -27.385 -31.2314 
7351 3 -43.5845 -26.8678 -30.6651 
9510 4 -41.3467 -28.5321 -30.8534 
9621 1 -41.1426 -26.1469 -29.7753 
9516 3 -38.9494 -27.7468 -29.9516 
11778 4 -36.7581 -27.3723 -31.5583 
11779 3 -34.5889 -28.8976 -31.5506 
11784 3 -34.344 -26.4533 -30.6428 
14049 1 -32.2286 -28.0431 -30.6873 
14047 4 -30.1493 -27.7471 -32.1552 
16317 3 -28.497 -27.7938 -30.1692 
16315 3 -26.5166 -27.3598 -31.6959 
18585 4 -24.0903 -26.503 -30.8632 
18480 4 -21.8646 -28.3943 -30.8865 
657 4 -57.6209 -24.5259 -29.8042 
655 4 -55.5787 -24.0896 -31.4581 
2814 4 -53.4537 -26.0462 -31.5347 
2923 4 -51.8906 -23.9194 -31.0547 
5082 4 -49.6177 -25.6117 -31.1394 
5191 1 -47.7481 -23.5646 -30.6238 
7350 2 -45.6815 -25.2264 -30.7723 
7457 3 -45.8677 -23.0867 -32.2206 
7352 4 -43.5624 -24.7462 -32.2697 
7356 4 -43.321 -24.4312 -29.7118 
9618 4 -41.1433 -24.0659 -31.2535 
9619 1 -38.9212 -25.7003 -31.5079 
9624 4 -38.6239 -23.1615 -30.4121 
11889 1 -36.393 -24.8977 -30.3888 
14046 3 -32.3542 -25.9061 -32.2139 
11887 4 -34.4219 -24.3061 -32.1249 
14157 3 -32.7642 -24.3765 -29.9566 
14052 3 -30.6188 -25.9986 -30.0587 
14155 4 -30.6373 -23.8564 -31.494 
16314 1 -28.5325 -25.6825 -31.6631 
16425 4 -28.2172 -23.136 -30.4509 
16320 4 -26.1243 -24.7664 -30.6104 
18582 1 -24.0595 -24.3892 -32.4119 
18588 3 -22.4563 -24.5286 -30.3084 
654 1 -57.5892 -22.3689 -31.3887 
763 3 -55.962 -20.428 -30.9107 
2922 3 -53.8006 -22.0627 -30.9533 
5190 4 -49.9218 -21.735 -30.6525 
3031 2 -52.1508 -20.0588 -30.449 
5192 1 -47.8054 -21.3658 -32.2102 
5196 4 -47.504 -21.0282 -29.6154 
7458 3 -45.4816 -20.5844 -31.2507 
7461 3 -45.3653 -22.8381 -29.75 
7459 3 -43.3719 -22.244 -31.1438 
9729 3 -40.9047 -21.4013 -30.1246 
9727 4 -38.7585 -20.9552 -31.8147 
11997 3 -37.0333 -20.9943 -29.9293 
11886 4 -36.6697 -22.6926 -32.0681 
11995 1 -34.9052 -20.6387 -31.5336 
11892 4 -34.9039 -22.6985 -29.9697 